VARIABLES = X, Y, Z
ZONE N =      1576 E =      2828 F=FEPOINT ET=TRIANGLE
       10.0284396167        0.6890132714        0.0000000000
        9.7099326027        0.5458334939        0.0000000000
        9.8700791007        0.6154369017        0.1868347941
       10.9356640877        1.2111703956        0.0000000000
       10.6420689343        1.0220961970        0.0000000000
       10.7900457386        1.1148021869        0.1868347941
       12.0051665059        2.1062991256        0.0000000000
       11.7548819448        1.8627733464        0.0000000000
       11.8815430595        1.9829752484        0.1868347941
       12.6789464362        2.9073764681        0.0000000000
       12.4677744019        2.6292514268        0.0000000000
       12.5750950436        2.7669968988        0.1868347941
       13.3775809921        4.1144392765        0.0000000000
       13.2257376717        3.7999702434        0.0000000000
       13.3036206285        3.9562577357        0.1868347941
       13.7365657277        5.0977165836        0.0000000000
       13.6333132428        4.7641208836        0.0000000000
       13.6870036198        4.9302216089        0.2561455753
       13.9799808762        6.4709754563        0.0000000000
       13.9449120132        6.1235314442        0.0000000000
       13.9646134014        6.2970347310        0.1868347941
       13.9808274178        7.5177340657        0.0000000000
       13.9979609522        7.1689452920        0.0000000000
       13.9914928418        7.3450041203        0.2510785241
       13.7396337684        8.8913848545        0.0000000000
       13.8255734974        8.5529154620        0.0000000000
       13.7847146162        8.7226861516        0.1868347941
       13.3822399065        9.8752415161        0.0000000000
       13.5176907963        9.5533716306        0.0000000000
       13.4519728060        9.7151513604        0.1868347941
       12.6855586310       11.0834327536        0.0000000000
       12.8821307849       10.7948040041        0.0000000000
       12.7856448426       10.9403443702        0.1868347941
       12.0130752864       11.8855988550        0.0000000000
       12.2504894997       11.6295096947        0.0000000000
       12.1333795831       11.7590349921        0.1868347941
       10.9450220952       12.7824562833        0.0000000000
       11.2284929998       12.5785165547        0.0000000000
       11.0880294893       12.6822543849        0.1868347941
        9.7203683642       13.4497748769        0.0000000000
       10.0386433751       13.3060801167        0.0000000000
        9.8804020725       13.3799125308        0.1868347941
        8.7281725776       13.7833192128        0.0000000000
        9.0643166016       13.6886917232        0.0000000000
        8.8968347672       13.7381019483        0.1868347941
        7.3491007046       13.9912894875        0.0000000000
        7.6973325842       13.9651796292        0.0000000000
        7.5233794877       13.9804064288        0.1868347941
        7.0000000000       14.0000000000        0.0000000000
        7.1746046841       13.9978220329        0.1868347946
        6.8258480630       13.9978333149        0.1869410931
        1.1277095866       10.8100138189        0.0000000000
        1.3244977954       11.0973985314        0.0000000000
        1.2264939072       10.9581090683        0.2401162093
        0.6263454067        9.8942230607        0.0000000000
        0.7782007303       10.2076804467        0.0000000000
        0.7012614178       10.0538323911        0.2237390347
        0.8641589395       10.3691919624        7.5508673087
        0.3703118650        9.2466052687        7.5508673087
        0.3703118650        9.2466052687        6.9119591040
        9.3588612882       13.5905821763        1.9070797831
        8.2935470342       13.8794430058        1.7409889812
        9.0949099741       13.6791730177        1.3217473974
        9.9643898292       13.3413242261        1.2169040092
       10.1949938022       13.2283235789        0.1868347941
       10.7995598076       12.8790598967        0.1868347941
       11.6337543992       12.2467437681        0.1868347941
       11.5014403791       12.3606934732        0.0000000000
       11.7631849441       12.1295291391        0.0000000000
       12.5819344315       11.2239801139        0.1868347941
       12.9110769998       10.7495558007        0.4723864608
       12.9749564170       10.6469022218        0.1868347941
       12.8833606604       10.7928969587        2.3782175862
       12.6375308698       11.1494874011        1.7546963073
       13.2736907191       10.1049645346        1.7973269552
       13.4533948612        9.7117696741        2.3701855730
       13.6793365620        9.0943884769        1.7186077078
       13.6903590067        9.0589065936        0.1868347941
       13.8397777832        8.4891070735        1.2165013090
       13.9298806012        7.9883090881        1.7235107113
       13.9282093938        7.9999572970        0.8023347844
       13.8321466285        8.5237363444        0.4553793947
       13.9427722638        7.8932599249        0.4248264013
       13.9658271211        7.6908346538        0.1849763944
       13.9910048749        6.6452453810        0.1868464324
       13.9999977109        6.9943389152        0.1868347941
       13.9976785374        6.8197360611        0.0000000000
       13.4475727386        4.2744164331        0.1868347941
       13.1439805863        3.6456740536        0.1868347941
       12.7792639555        3.0503027796        0.1868347941
       12.3369177751        2.4703964123        0.8425469227
       12.6424865218        2.8572538273        1.1986902503
       12.6122355245        2.8163637326        0.6764005815
       12.1256753563        2.2326682366        0.1868347941
       10.8603029802        1.1606455064        2.3178036929
       11.7595674013        1.8671140523        2.3493457244
       11.3733610927        1.5343149786        1.7049339952
       11.0788333665        1.3111408553        0.1868347941
       11.3574699296        1.5216374880        0.1868347941
       11.2194644843        1.4146513568        0.0000000000
       10.3259024624        0.8405866505        1.7671381498
       10.1849156067        0.7665168182        0.1868347941
        9.2189861932        0.3610166234        0.1849986640
        9.3846813315        0.4187163146        0.0000000000
        9.0534952616        0.3079780925        0.0000000000
        9.3400250594        0.4027064093        0.4399705716
        9.8506894458        0.6067559343        0.4546653677
        9.5480997780        0.4802463604        0.1868347941
        8.2050051316        0.1044969268        0.1868347941
        8.3766283595        0.1366994558        0.0000000000
        8.0326320577        0.0765853054        0.0000000000
        7.4118001443        0.0121233095        1.7391935029
        8.4724005276        0.1566063473        1.6924327557
        7.9001592116        0.0581188865        1.1990178572
        8.3449723062        0.1304258141        0.8149854709
        7.4172999253        0.0124495871        0.7709252957
        7.5120883288        0.0187561607        0.1868347941
        7.3377921708        0.0081550039        0.0000000000
        7.1632858128        0.0019047060        0.1868347941
        6.9131244285        0.0005391183        1.1912032045
        2.6248309318        1.5357621186        0.1868347941
        2.7624895660        1.4283301138        0.0000000000
        2.4898948614        1.6465943887        0.0000000000
        0.3703118650        9.2466052687        2.4396016712
        0.3703118650        9.2466052687        3.0785098758
        0.0873029588        8.1020978251        2.7564660646
        0.3703118650        9.2466052687        1.8014164187
        0.0894809247        8.1156729405        2.1169184248
        0.1355883869        5.6289226115        0.1868347941
        0.1719236696        5.4581265857        0.0000000000
        0.1035246643        5.8005718262        0.0000000000
        0.3703118650        9.2466052687        1.2401218970
        0.1239965592        8.3117075446        1.4539247912
        0.0761179052        5.9705065630        1.8872325973
        0.3837086465        4.7142421989        1.6057861792
        0.1338255244        5.6377782594        1.2953682437
        0.3703118650        9.2466052687        0.4653622912
        0.3703118650        9.2466052687        0.8033458251
        0.2072001221        8.6905235339        0.5801934320
        0.0830823822        8.0752909691        7.5508673087
        0.3703118650        9.2466052687        0.2037033224
        0.2309384653        8.7832010374        0.2392127030
        0.2665199304        8.9131769789        0.0000000000
        0.3703118650        9.2466052687        0.0000000000
        1.3078440623        2.9257686883        0.0000000000
        1.1117390078        3.2147150057        0.0000000000
        1.2079894198        3.0690187689        0.1868347941
        1.7420293730        2.3789887594        0.0000000000
        1.5181152859        2.6469619825        0.0000000000
        1.6284010203        2.5115788521        0.1868347941
        0.1094258791        8.2328780493        0.0000000000
        0.1794857375        8.5749873635        0.0000000000
        0.1448262537        8.4165425896        0.1787618723
        1.9790290645        2.1225159288        0.0000000000
        1.8589296358        2.2492742122        0.1868347941
        0.0026221838        7.1915820905        0.0000000000
        0.0208839243        7.5403136141        0.0000000000
        0.0095780673        7.3660617481        0.1868347941
        2.2285245353        1.8781817789        0.0000000000
        2.3577653222        1.7607579559        0.1868347941
        0.0522890392        6.1460021048        0.0000000000
        0.0758762551        5.9721330993        0.1951087657
        3.0456302377        1.2239321522        0.0000000000
        2.9027851021        1.3243652267        0.1868347941
        0.3594886261        4.7855906671        0.0000000000
        0.2573158292        5.1195186328        0.0000000000
        0.3063195685        4.9519174134        0.1868347941
        3.6407063616        0.8587341491        0.0000000000
        3.3386122194        1.0339091928        0.0000000000
        3.4885667498        0.9444375547        0.1868347941
        0.9302881727        3.5130818287        0.0000000000
        0.7639431367        3.8201266067        0.0000000000
        0.8452006620        3.6655667484        0.1868347941
        3.9511608373        0.6988429824        0.0000000000
        3.7949363820        0.7768523074        0.1868347941
        1.4112407981        2.7850539051        0.1868347941
        4.5940413714        0.4264649482        0.0000000000
        4.2692030130        0.5546336167        0.0000000000
        4.4308228232        0.4885233138        0.1868347941
        2.1022529241        1.9987927877        0.1868347941
        5.2608580108        0.2194848911        0.0000000000
        4.9248674816        0.3146559527        0.0000000000
        5.0922691785        0.2649748989        0.1868347941
        3.1909360836        1.1270933874        0.1868347941
        5.9449768122        0.0799619890        0.0000000000
        5.6011767735        0.1411886175        0.0000000000
        5.7726949315        0.1084310735        0.1868347941
        4.1092825127        0.6247547177        0.1868347941
        6.2914025059        0.0359573816        0.0000000000
        6.1179152089        0.0557990797        0.1868347941
        5.4305290699        0.1782142367        0.1868347941
        0.4902701556        9.5736000763        0.0000000000
        0.5294074796        9.6704741966        0.2277413858
        1.0365315712       10.6656574170        0.1811968996
        1.4267701704       11.2354585663        0.1810440797
        1.5353375715       11.3746387899        0.0000000000
        1.6458649999       11.5092392264        0.1869410986
        2.0046095482       11.9036796627        0.4688437170
        1.5582924787       11.4031601439        0.4085986960
        1.8767928463       11.7699841153        0.1869410923
        0.8364908611       10.3183060581        2.1079473711
        3.0683447542       12.7915530756        0.7285115548
        2.8387157517       12.6288287774        0.4322498077
        3.3854253885       12.9945684063        0.4284118534
        0.8413862616       10.3273828787        2.7564660646
        3.8697136673       13.2610947505        1.9506774013
        4.1870323042       13.4099307908        1.3055703215
        4.9673012158       13.6983681335        1.7995256050
        6.6007067933       13.9886025023        1.2665781449
        5.4520229824       13.8266951853        1.2682730702
        6.1015292355       13.9420998470        0.8823043482
        1.9970503166       11.8959671634        0.0000000000
        2.2467801642       12.1387645590        0.0000000000
        2.1204048768       12.0189193492        0.1869410923
        2.7808968997       12.5856216332        0.0000000000
        3.0639614064       12.7885749706        0.0000000000
        2.9211666521       12.6888591580        0.1869410986
        0.9454601588       10.5131961675        0.0000000000
        0.8590768437       10.3599200568        0.1789004510
        3.3567708677       12.9771967919        0.0000000000
        3.6586003377       13.1510201021        0.0000000000
        3.5066043045       13.0659860299        0.1869410923
        0.6074240215        9.8521872939        0.5448214157
        0.6577319180        9.9623699255        0.9701324536
        4.2863097105       13.4525874665        0.0000000000
        4.6106355129       13.5795848917        0.0000000000
        4.4476826020       13.5181037043        0.1869410923
        1.7597069118       11.6410481952        0.0000000000
        4.9408769707       13.6902923965        0.0000000000
        4.7750675665       13.6369929687        0.1869410923
        2.5082781666       12.3688392574        0.0000000000
        2.6421465220       12.4780574170        0.1887602874
        5.2762164631       13.7844358880        0.0000000000
        5.1079610743       13.7394501781        0.1869410986
        3.9687025385       13.3096145445        0.0000000000
        3.8126648676       13.2322463650        0.1869410986
        5.6158237470       13.8617822831        0.0000000000
        5.4455389583       13.8252216718        0.1869410933
        0.8424784791       10.3294036583        3.3944945180
        0.3703118650        9.2466052687        4.3563262852
        0.8412083019       10.3270534741        4.6731431900
        0.3703118650        9.2466052687        4.9952344899
        0.8407640712       10.3262310163        5.3124682314
        0.3703118650        9.2466052687        6.2730508993
        0.8205868008       10.2885943066        6.6272939331
        0.0017749413        6.8423737732        0.0000000000
        0.0000206021        7.0169832160        0.1868347941
        0.0565147144        7.8877004496        0.0000000000
        0.0808174753        8.0606192485        0.1868347941
        0.6131178857        4.1350851918        0.0000000000
        0.4781877812        4.4571737411        0.0000000000
        0.5436440150        4.2952879275        0.1868347941
        0.1611914304        8.4935519235        0.9716268315
        1.0191527207        3.3627667353        0.1868347941
        0.0183443052        6.4935577431        0.0000000000
        0.0331490193        6.3195682157        0.1868347941
        0.2125079019        5.2882900310        0.1868347941
        0.6865661613        3.9766652246        0.1868347941
        0.0869416758        8.0998293533        3.3944945180
        0.0871717412        8.1012744730        4.0338185531
        0.0873619155        8.1024675563        4.6731431900
        0.1020987671        8.1912004788        6.5535182786
        0.0876053244        8.1039926851        5.9517933705
        0.0050801243        7.2666382064        1.7106398980
        0.0002395201        6.9420929737        2.3957215365
        0.7567897767       10.1658057596        1.4677724382
        0.3703118650        9.2466052687        3.7174180805
        0.8417826168       10.3281163834        4.0338185531
        5.9588580132       13.9221400855        0.0000000000
        6.3044699679       13.9653598597        0.0000000000
        6.1313951344       13.9458999120        0.1869410923
        6.6518039353       13.9913346008        0.0000000000
        6.4779753712       13.9805078817        0.1869410923
        0.3703118650        9.2466052687        5.6341426946
        0.0875091976        8.1033906412        5.3124682314
        0.0216761013        7.5504503298        6.9603287903
        0.8404743942       10.3256945608        5.9517933705
        1.3966534426       11.1955342160        1.6739005197
        1.4722281063       11.2946173160        2.3844323815
        8.0438289999       13.9217354052        0.0000000000
        7.8708517472       13.9456185638        0.1868347941
        4.7587570904        0.3684971371        0.1868347941
        0.7976571370        3.7548585532        1.9422945115
        0.3611889620        4.7804982537        2.2718655602
        6.9886778459        0.0000091565        0.0000000000
        6.6395916986        0.0092843102        0.0000000000
        6.8140769245        0.0024695349        0.1868347941
       13.5135523139        4.4360896555        0.0000000000
       13.5754786604        4.5993583384        0.1868347941
       13.0584002479        3.4934651811        0.0000000000
       12.8759851762        3.1956868939        0.0000000000
       12.9690499110        3.3434383418        0.1868347941
       13.2309054234       10.1899557371        0.0000000000
       13.3085354908       10.0335424773        0.1868347941
        8.3877276198       13.8610649358        0.0000000000
        8.2161567026       13.8935450151        0.1868347941
        2.1434689549       12.0412405425        1.9523068566
        3.0359937479       12.7694587644        1.6060352518
        3.0397822475       12.7720598882        2.2938729881
        8.5584349872       13.8243153789        0.1868347941
        3.2091927821       12.8847073536        0.1869410923
       11.3663252196       12.4713073462        0.1868347941
        9.3953231244       13.5774179683        0.0000000000
        9.5586418353       13.5156236815        0.1868347941
        7.2233854587       13.9964347304        1.7768446506
        7.6981999960       13.9650927320        1.2341568086
        9.2305138609       13.6351192843        0.1868347941
       12.4748367269       11.3618989918        0.0000000000
       12.3643321615       11.4971035636        0.1868347941
       10.4488324391       13.0914329026        1.7178197557
       11.6131743211       12.2648478310        1.7226477001
       11.1996989219       12.6002257959        2.3739198493
       11.8896514722       12.0091225260        0.1868347941
       13.6369209937        9.2251471241        0.0000000000
       13.5793529825        9.3900029984        0.1868347941
       12.1428680359       11.7487796712        2.3758746737
       13.1493980117       10.3443839633        0.1868347941
       13.2024659162       10.2449062480        0.4278016306
        9.9781181827        0.6651115172        2.4493958848
        8.7171986218        0.2138944237        0.0000000000
        8.5473949442        0.1731728536        0.1868347941
        7.6860658263        0.0337015796        0.0000000000
        7.8608401857        0.0531334996        0.1892614876
        8.8859337276        0.2588388259        0.1868347941
        6.3713090215        0.0282894743        1.6941645231
        5.8256763163        0.0992055612        1.1927884872
        5.1372076602        0.2524074887        1.7097653954
        4.2242926226        0.5738465195        1.3880884636
        4.0172320094        0.6672995401        1.9742482396
        7.0378201961       13.9998978302        0.4338555621
       13.8925592248        5.7782687149        0.0000000000
       13.9208889713        5.9505735630        0.1868347941
       11.4927638249        1.6320326740        0.0000000000
       11.6252619802        1.7457682184        0.1868347941
       10.3155714178        0.8350193696        0.4430116609
       10.7525901956        1.0908488914        0.4458842201
       10.4918257569        0.9331101145        0.1868347941
       12.9644300926        3.3359075243        1.7216055196
       12.2218058094        2.3381608684        1.6910236460
        1.9641617534        2.1378674273        1.2204583267
        2.7297651365        1.4533709146        1.1999739251
        2.3217285377        1.7929109740        0.7844094597
        2.3158463136        1.7982018261        1.7170473486
        4.9743672380        0.2994916675        1.1220940025
        4.1266167428       13.3830767391        0.1869410986
        5.7869654206       13.8940950899        0.1869410986
        5.8537531625       13.9055136078        0.4619879234
       13.8230528023        5.4360465299        0.0000000000
       13.8599404025        5.6067241212        0.1868347941
       13.8945263008        8.2105813013        0.0000000000
       13.8621849864        8.3821784300        0.1868347941
       13.7819193786        5.2663421497        0.1868347941
       13.9906546995        7.3615893703        1.1814328184
       13.9951831352        6.7403600476        1.7077624130
       13.9477038634        6.1459443656        1.2083354456
       13.8540820787        5.5781846610        1.7184793309
       13.6979565150        4.9659452999        1.1938820904
        0.4167899161        4.6206418951        0.1868347941
        1.4789405650        2.6967567214        1.7143090970
        1.4434754827        2.7426492640        1.1355275194
       10.3394096995        0.8478993133        0.0000000000
       11.8717562949        1.9734713168        1.1636639759
       12.2429946206        2.3620039448        0.0000000000
       12.3570512941        2.4942257677        0.1868347941
       13.2481366210        3.8439282699        1.2002558132
       13.5002793238        4.4026227242        0.8507833038
       13.2258129792        3.8001167602        0.7101349529
       13.4938135281        4.3864993090        0.4491142318
       13.9977826861        6.8238254333        0.4396670015
       13.9463205748        7.8652343455        0.0000000000
       13.9225773155        8.0382308566        0.1868347941
       13.6615576891        9.1502672287        0.4459957483
       13.4535713242        9.7113496941        0.4526221832
       13.0640639758       10.4967310588        0.0000000000
       12.5343901978       11.2860850596        0.4374037068
       12.1512438750       11.7396926630        0.4530221758
       11.5297606220       12.3367844913        1.1361868466
       10.8988894214       12.8136616069        1.2335905869
       10.9982428120       12.7457857962        0.7583735512
       10.3493560605       13.1466913034        0.0000000000
       10.6517331443       12.9720051108        0.0000000000
       10.5016340942       13.0612340880        0.1868347941
       10.0965890883       13.2778289255        0.4447188162
        9.4736668789       13.5483564482        0.4394343070
        7.1113473685       13.9991143557        0.8207799682
        7.6673042024       13.9681206291        0.4559180233
        6.0728276747       13.9383248323        1.8048892303
        1.2595102472       11.0058429073        0.6232317923
        8.3261636676       13.8732299486        0.4696048635
       11.2284929998       12.5785165547        0.4404108492
       10.6766930585       12.9566708952        0.4319815680
       12.2704801617       11.6067384194        1.2582946508
       13.0013583399       10.6032898962        1.2507049645
       13.5291091435        9.5240312581        1.1919941719
       13.9916345490        7.3421203491        0.6355012227
       13.9944178195        6.7205015821        0.8185759956
       12.5548684133        2.7404886535        0.4087984271
       12.9360084876        3.2900399954        0.8450433329
       11.7256216591        1.8358447027        0.4255618651
       12.2043987360        2.3187358762        0.4423825756
        9.4037461432        0.4256555856        1.7399423697
        9.9095379322        0.6333219791        1.2245484886
        8.9828435582        0.2867048759        1.1941835754
        8.7365572482        0.2188224530        0.4450579835
        8.1095325543        0.0884923851        0.4631053529
        6.4653307463        0.0204492416        0.1868347941
        6.9412679990        0.0002463935        0.4486250845
        7.5755657434        0.0237026959        0.4304611871
        6.2892079977        0.0361810241        0.4332745220
        1.1245238085        3.1949008524        0.4333970917
        0.0078841095        6.6678624175        0.1868347941
        0.0365327192        7.7142292558        0.1868972227
        0.0026748029        7.1934944084        0.4213084511
        0.1147689657        8.2623761739        0.4084094447
        1.5111464661        2.6557524375        0.4527479461
        1.2867230590        2.9554398761        0.7692291674
        1.7785837456        2.3377245578        0.7667808859
        1.9132576843        2.1911485141        0.4505457466
        0.0053993461        6.7251151297        0.4550534968
        3.2036187980        1.1188870297        1.7059414726
        3.5092842717        0.9324713677        1.1517508220
        0.3615679504        4.7793649730        0.7273771775
        0.3099174925        4.9401951444        1.0816492567
        0.5572808575        4.2629632720        1.1266142503
        0.6321882395        4.0929442070        0.7579341152
        0.7656749724        3.8167325826        0.4234801758
        0.4695834496        4.4793533215        0.4344841802
        0.9279444717        3.5171647094        1.2756768486
        3.2801583056        1.0701789430        0.4290484075
        3.8340333840        0.7568713463        0.4517845805
        5.6725983808        0.1270090251        0.4530257510
        4.9701965047        0.3007539402        0.4280021756
        2.2985349046        1.8138428527        0.4238313720
        0.9341093072       10.4935612351        0.4140998807
        2.3756547112       12.2550385964        0.1824311808
        2.3994621505       12.2758934310        0.4165173977
        3.9676708176       13.3091187760        0.4423208808
        4.5747608891       13.5664461663        0.4537733520
        3.4237072976       13.0174853973        1.1200732361
        2.7476046215       12.5603177558        1.0771909328
        5.1903614967       13.7620417395        0.4620992142
        4.2730730748       13.4470046956        0.7508708448
        3.6966828365       13.1715553726        0.7684137921
        0.0175865767        7.4958858601        1.1164003705
        0.0176032546        6.5038793600        1.3068348589
        0.0059487035        6.7114753705        0.8341696287
        0.2566614776        5.1218664658        0.4523329777
        0.0335194681        7.6842141471        0.4086271742
        6.3953210887       13.9738341975        0.3980244934
        1.1068078667       10.7776032720        1.0961935731
        8.5025747270       13.8368318094        0.9545164306
        4.3398599096        0.5251521485        0.4442514626
        0.0446488183        6.2106395382        0.4811425518
        0.1229818126        5.6936230060        0.4574483520
        6.3477071427        0.0304581192        0.7715721477
       12.9197045606        3.2640800444        0.4494103838
       13.7694980697        8.7815431187        0.7922460686
        8.9069759117       13.7352388875        0.4804300832
        2.1653331197       12.0622125752        1.3661837786
       11.7330051391       12.1573891024        0.4450002658
       10.8912354349        1.1812126014        1.2051487292
        5.3833039179        0.1892515993        0.7502591944
       13.6885796132        4.9353201804        0.6399258088
       13.4887268313        4.3738956403        1.7083961508
       11.9678781334        2.0684498531        0.7192538314
        2.7443993370        1.4421350325        0.4573184547
        4.1635557173        0.6004231522        0.8605291549
       13.8361674499        5.4944055669        0.4416790635
       13.8330631158        5.4803788446        0.8513557018
       13.9543560598        6.2019199326        0.4403469272
       13.2378828393        3.8237100757        0.4230482395
       13.9326850927        6.0315592914        0.7346461673
        2.9935838165        1.2599103348        0.7667874013
        4.8274079497       13.6543101658        0.8910397823
        5.4917555900       13.8355832816        0.7777545983
        6.4826998736       13.9808595874        0.6500256578
        7.8873294666       13.9435327044        0.7625184470
        9.8127363701       13.4100323020        0.7385385064
        9.2577273362       13.6259087887        0.8439559911
        0.9383107873        3.4991538325        0.7570952166
        0.9006195926       10.4347574362        0.7096494176
        0.0698947511        7.9867326078        0.6980600949
        1.5669711634       11.4138642549        1.0981566792
        1.6856139318       11.5560180770        0.7037617671
        2.0833772906       11.9826520181        0.8768634026
        0.0598979811        6.0862254287        0.8576673220
        0.1688711375        5.4717073371        0.7970442049
        0.0066419642        7.3048661732        0.7060666458
        9.0417415883        0.3043826807        0.7598206609
        9.6418367156        0.5176625537        0.8109620958