VARIABLES = X, Y, Z
ZONE I=       37  J=       73  F=POINT
        2.0533403347        1.9882211571       11.3251765285
        2.1248761177        1.9406774099       11.4095074879
        2.2143920625        1.9051794315       11.4812654491
        2.3203216252        1.8837153319       11.5353818024
        2.4372625830        1.8758485374       11.5696804681
        2.5590489075        1.8790691602       11.5857071677
        2.6814376312        1.8899404729       11.5875976369
        2.8028704288        1.9055439868       11.5796571801
        2.9232741162        1.9244806877       11.5641843884
        3.0422292667        1.9469292064       11.5408483927
        3.1580593313        1.9738503685       11.5078040348
        3.2684092649        2.0059450560       11.4635533728
        3.3715710690        2.0430506093       11.4081878129
        3.4672515196        2.0842667166       11.3432788876
        3.5560673115        2.1285549870       11.2707645022
        3.6382284734        2.1752704374       11.1918512382
        3.7126044355        2.2242399202       11.1067621547
        3.7770399276        2.2754268062       11.0153596890
        3.8296965785        2.3285463376       10.9179714449
        3.8702841188        2.3829732916       10.8156934340
        3.9000982463        2.4379750340       10.7100022621
        3.9207672359        2.4930046463       10.6021325037
        3.9327049644        2.5477621674       10.4928212007
        3.9345542148        2.6019806773       10.3826053069
        3.9241296963        2.6551738018       10.2723021401
        3.9001604921        2.7066273417       10.1631329224
        3.8634707401        2.7556841394       10.0563171331
        3.8166605511        2.8020723814        9.9525184085
        3.7625126545        2.8459456775        9.8517298901
        3.7023232252        2.8875328494        9.7538255964
        3.6353803495        2.9266494916        9.6593751572
        3.5599055688        2.9624891838        9.5699919630
        3.4746781648        2.9939237962        9.4877932755
        3.3801295723        3.0201348339        9.4142785707
        3.2782059627        3.0411050415        9.3494732928
        3.1712758993        3.0575760329        9.2920542801
        3.0610100746        3.0704790445        9.2404336484
        2.0533403347        1.9882211571       11.3251765285
        2.1224432008        1.9488156357       11.4159182499
        2.2105725964        1.9225950243       11.4935784185
        2.3154722230        1.9109108686       11.5531183422
        2.4313393795        1.9126692716       11.5924859176
        2.5519674886        1.9249692642       11.6133320207
        2.6732535542        1.9443621084       11.6198056480
        2.7937292408        1.9681517034       11.6161489230
        2.9132737522        1.9951109312       11.6045941999
        3.0313721198        2.0253371199       11.5847991695
        3.1463424404        2.0594837081       11.5549548879
        3.2559446735        2.0979330185       11.5135889505
        3.3585920530        2.1404061112       11.4607571442
        3.4539737742        2.1861246018       11.3979407959
        3.5425275498        2.2342490027       11.3269931096
        3.6242682389        2.2841975814       11.2491036336
        3.6980518711        2.3356437963       11.1645567445
        3.7619597526        2.3882972161       11.0733042930
        3.8144895862        2.4417285458       10.9757223986
        3.8555122166        2.4953985820       10.8728846181
        3.8861265337        2.5488193087       10.7662075346
        3.9074805513        2.6016417834       10.6568960871
        3.9195321974        2.6535523034       10.5457321955
        3.9208251141        2.7040749313       10.4333526912
        3.9095475929        2.7525085519       10.3206582794
        3.8850811106        2.7981298431       10.2088685704
        3.8488022501        2.8405406779       10.0991069280
        3.8034508048        2.8798575777        9.9919098505
        3.7514852994        2.9165167962        9.8872092499
        3.6936336024        2.9507695251        9.7849489405
        3.6286953483        2.9822282496        9.6858873524
        3.5547014117        3.0098443384        9.5918619835
        3.4705425654        3.0324007797        9.5051460971
        3.3769032414        3.0492070812        9.4272677952
        3.2759393870        3.0605003502        9.3581735241
        3.1700955553        3.0672477810        9.2964368446
        3.0610100746        3.0704790445        9.2404336484
        2.0533403347        1.9882211571       11.3251765285
        2.1193994008        1.9572250985       11.4216551622
        2.2052817130        1.9404218126       11.5046666956
        2.3081854722        1.9385681247       11.5691872729
        2.4220446537        1.9499843281       11.6132238550
        2.5406678807        1.9714398459       11.6384697881
        2.6600701684        1.9994797957       11.6490799277
        2.7788342402        2.0315760647       11.6492858979
        2.8967888988        2.0666066672       11.6413165429
        3.0133556803        2.1045706298       11.6248294147
        3.1268698753        2.1458676047       11.5979943056
        3.2351861365        2.1906431317       11.5592830381
        3.3367949838        2.2385402441       11.5086814047
        3.4313586776        2.2888588056       11.4476289655
        3.5191994231        2.3408643143       11.3779937148
        3.6002422172        2.3939730191       11.3010233698
        3.6733883414        2.4477287780       11.2170569689
        3.7368934281        2.5016886038       11.1260546167
        3.7894225264        2.5553788918       11.0283508563
        3.8308451828        2.6083624164       10.9249668171
        3.8620445533        2.6603085542       10.8173051515
        3.8838673824        2.7109403228       10.7066150456
        3.8961075749        2.7598650187       10.5937554111
        3.8974340899        2.8064501769       10.4794225448
        3.8864090888        2.8499190275       10.3645221404
        3.8628191220        2.8896679473       10.2502266701
        3.8282280970        2.9255860016       10.1375982792
        3.7852313915        2.9580870393       10.0271454329
        3.7359006931        2.9877427736        9.9188337954
        3.6805553320        3.0147180678        9.8127004577
        3.6177664064        3.0384107513        9.7096288184
        3.5455811578        3.0576040236        9.6115735089
        3.4630688290        3.0710896494        9.5208805791
        3.3711082830        3.0783653898        9.4390871603
        3.2719600550        3.0799255273        9.3660950736
        3.1680671707        3.0769308899        9.3004220250
        3.0610100746        3.0704790445        9.2404336484
        2.0533403347        1.9882211571       11.3251765285
        2.1157580512        1.9658298924       11.4266775901
        2.1985397685        1.9584927483       11.5144539901
        2.2984984387        1.9664356730       11.5834762514
        2.4094373261        1.9874676215       11.6317471508
        2.5252267545        2.0180758144       11.6609475940
        2.6419761930        2.0547941551       11.6752338824
        2.7582845821        2.0952188435       11.6788688018
        2.8739274739        2.1382948694       11.6741196585
        2.9882876637        2.1839266752       11.6606419862
        3.0997353887        2.2323021025       11.6365374401
        3.2062099521        2.2833702006       11.6001742904
        3.3062594616        2.3366952678       11.5514694069
        3.3995280837        2.3916121151       11.4918795836
        3.4862737434        2.4474447174       11.4233614458
        3.5663897328        2.5036032502       11.3472491824
        3.6388268125        2.5595498649       11.2638935653
        3.7019362016        2.6147503410       11.1731817693
        3.7544318208        2.6687062311       11.0753531188
        3.7961209254        2.7210368686       10.9713939040
        3.8277468675        2.7714923694       10.8627655519
        3.8500575763        2.8198268855       10.7508254906
        3.8628997585        2.8656099804       10.6365061877
        3.8651510938        2.9081601525       10.5204889168
        3.8556155657        2.9467271215       10.4035956677
        3.8341844177        2.9808476279       10.2869218393
        3.8022934643        3.0106132225       10.1715278888
        3.7622273787        3.0365920610       10.0580063549
        3.7157274914        3.0593748907        9.9464443314
        3.6629285021        3.0790144490        9.8369758957
        3.6024261649        3.0947616898        9.7305291421
        3.5324380613        3.1053403749        9.6290665229
        3.4522202526        3.1096346907        9.5349344424
        3.3627526045        3.1073537728        9.4496740110
        3.2662892874        3.0992215127        9.3731859875
        3.1652052461        3.0865501560        9.3039804520
        3.0610100746        3.0704790445        9.2404336484
        2.0533403347        1.9882211571       11.3251765285
        2.1115401009        1.9745541580       11.4309492172
        2.1903857031        1.9766429307       11.5228703521
        2.2864746982        1.9942648902       11.5958820142
        2.3936071076        2.0247939322       11.6479229355
        2.5057554420        2.0644722188       11.6806111460
        2.6191002124        2.1098122201       11.6980966102
        2.7322243225        2.1585016282       11.7047018255
        2.8448461957        2.2095331278       11.7027618023
        2.9563311547        2.2627273411       11.6919303194
        3.0651041319        2.3180861683       11.6702158082
        3.1691910467        2.3753743041       11.6358643562
        3.2671923173        2.4340625945       11.5887396754
        3.3587436484        2.4934953053       11.5303610290
        3.4440677697        2.5530482609       11.4628118963
        3.5230499897        2.6121507647       11.3875077366
        3.5946756136        2.6702206693       11.3047603912
        3.6573328103        2.7266451493       11.2143261050
        3.7097226934        2.7808691652       11.1163321209
        3.7515882369        2.8325135668       11.0117716340
        3.7836240379        2.8813811686       10.9022340890
        3.8066287060        2.9272954026       10.7892248708
        3.8206171668        2.9698834523       10.6737230492
        3.8246649833        3.0085086223       10.5563158212
        3.8176561794        3.0424698178       10.4376678050
        3.7993427496        3.0713664405       10.3187860120
        3.7708312753        3.0953500964       10.2007926404
        3.7340416279        3.1150149967       10.0844601125
        3.6904973867        3.1309267925        9.9700592623
        3.6403551295        3.1430826082        9.8578083590
        3.5824210314        3.1507009791        9.7486027897
        3.5151629548        3.1525503297        9.6443219613
        3.4379860720        3.1476525622        9.5472610772
        3.3518689091        3.1359107347        9.4589720721
        3.2589636665        3.1182296997        9.3793986890
        3.1615309836        3.0960309454        9.3070856316
        3.0610100746        3.0704790445        9.2404336484
        2.0533403347        1.9882211571       11.3251765285
        2.1067740105        1.9833228577       11.4344382933
        2.1808764820        1.9947109795       11.5298527479
        2.2722032918        2.0218117007       11.6063111144
        2.3746734461        2.0616418487       11.6616326258
        2.4823991521        2.1102290408       11.6973234994
        2.5916103706        2.1640519950       11.7175122323
        2.7008436722        2.2208651971       11.7265974212
        2.8097552426        2.2797003925       11.7270066292
        2.9177128956        2.3403058569       11.7184048200
        3.0232201748        2.4025111569       11.6987067648
        3.1244008107        2.4658948700       11.6660361346
        3.2199075143        2.5298198343       11.6202144270
        3.3093686505        2.5936325704       11.5628404802
        3.3929799528        2.6567766509       11.4961307306
        3.4706254826        2.7187313144       11.4215650333
        3.5413170441        2.7788872482       11.3393839303
        3.6034565251        2.8365334673       11.2491887948
        3.6557133166        2.8910103206       11.1510004796
        3.6977773719        2.9419033882       11.0458536457
        3.7303433873        2.9890842003       10.9355042543
        3.7543216534        3.0325205628       10.8216171870
        3.7699216520        3.0719892698       10.7051905156
        3.7763728461        3.1069417954       10.5866682900
        3.7725306375        3.1366790717       10.4665226549
        3.7578850059        3.1607407266       10.3456778119
        3.7331434244        3.1792067009       10.2253613731
        3.6998850229        3.1926302489       10.1065767207
        3.6595217538        3.2015834961        9.9898000214
        3.6123626058        3.2061126041        9.8753088040
        3.5575116145        3.2055177723        9.7639082182
        3.4936938171        3.1986772753        9.6573384942
        3.4204002498        3.1847475881        9.5578192604
        3.3385196009        3.1637764603        9.4669282940
        3.2500356177        3.1367943843        9.3846895692
        3.1570721780        3.1052998712        9.3097140822
        3.0610100746        3.0704790445        9.2404336484
        2.0533403347        1.9882211571       11.3251765285
        2.1014955424        1.9920625161       11.4371178761
        2.1700864438        2.0125404022       11.5353456056
        2.2557977474        2.0488384180       11.6146805294
        2.3527845666        2.0976965493       11.6727720652
        2.4553361909        2.1549548613       11.7109651571
        2.5597140696        2.2170450200       11.7333425183
        2.6643800542        2.2817680698       11.7443851743
        2.7689212974        2.3481912799       11.7466396513
        2.8727266144        2.4160018454       11.7398123073
        2.9744049584        2.4848654077       11.7217454286
        3.0721941903        2.5541691324       11.6904467350
        3.1647988975        2.6231571187       11.6456881620
        3.2518302743        2.6911799656       11.5891325261
        3.3334497334        2.7577702584       11.5231135424
        3.4095422135        2.8224829797       11.4491675774
        3.4791563576        2.8846869150       11.3674675400
        3.5407201392        2.9435468904       11.2774720780
        3.5928792645        2.9982594540       11.1791075852
        3.6352700354        3.0483584386       11.0734530692
        3.6685751935        3.0938138710       10.9624222588
        3.6937919806        3.1348011061       10.8478252205
        3.7112894706        3.1712978851       10.7306699039
        3.7204147536        3.2028377859       10.6112609678
        3.7199718904        3.2286506159       10.4898935374
        3.7091944222        3.2481137572       10.3674264962
        3.6884300509        3.2611653846       10.2452004209
        3.6589802113        3.2683238198       10.1244402685
        3.6222083391        3.2702462520       10.0058027888
        3.5786121638        3.2671321564        9.8895931794
        3.5275865571        3.2584358978        9.7764988275
        3.4680657764        3.2431546274        9.6681063053
        3.3995580488        3.2205337465        9.5665626222
        3.3228003052        3.1907011994        9.4734900728
        3.2395735534        3.1547652532        9.3890187484
        3.1518630288        3.1142854515        9.3118454752
        3.0610100746        3.0704790445        9.2404336484
        2.0533403347        1.9882211571       11.3251765285
        2.0957474479        2.0007019212       11.4389660646
        2.1581065653        2.0299809570       11.5393013322
        2.2373951461        2.0751156526       11.6209181856
        2.3281165544        2.1326524058       11.6812518196
        2.4247770354        2.1982698095       11.7214351096
        2.5236571781        2.2683383120       11.7454711950
        2.6231179373        2.3406863149       11.7579215154
        2.7226679108        2.4144149993       11.7614818038
        2.8217319048        2.4891633528       11.7559466994
        2.9190509454        2.5644430838       11.7391234288
        3.0129953837        2.6394466551       11.7089090641
        3.1023197871        2.7132896108       11.6649954914
        3.1866000060        2.7853255143       11.6090639168
        3.2659455741        2.8551902232       11.5435377339
        3.3402435560        2.9225344032       11.4700222811
        3.4086057800        2.9867135681       11.3886684302
        3.4695254533        3.0467583409       11.2988376752
        3.5216505589        3.1017032097       11.2003718307
        3.5645517736        3.1510225804       11.0943579784
        3.5988432520        3.1947964257       10.9828098186
        3.6255271438        3.2334259346       10.8676460237
        3.6450626239        3.2670904508       10.7498980993
        3.6568945034        3.2953740163       10.6297882445
        3.6598204605        3.3173831599       10.5074961972
        3.6529116388        3.3322944406       10.3838395915
        3.6362602594        3.3399120527       10.2602420946
        3.6109629705        3.3407796371       10.1380851233
        3.5783518351        3.3357243882       10.0181430277
        3.5390761452        3.3251640550        9.9007166912
        3.4927515664        3.3087191876        9.7863788059
        3.4384461714        3.2854630740        9.6765844907
        3.3756256986        3.2546594461        9.5734313925
        3.3048410324        3.2164536417        9.4786035011
        3.2276614693        3.1719996965        9.3923501029
        3.1459438702        3.1229187334        9.3134627852
        3.0610100746        3.0704790445        9.2404336484
        2.0533403347        1.9882211571       11.3251765285
        2.0895790581        2.0091727786       11.4399662215
        2.1450436423        2.0468900096       11.5416808022
        2.2171552157        2.1004242719       11.6249634253
        2.3008724479        2.1662154618       11.6869975525
        2.3909631593        2.2398081751       11.7286522168
        2.4837224375        2.3174965298       11.7538083679
        2.5773869608        2.3971153908       11.7670980030
        2.6713731686        2.4777983374       11.7713987562
        2.7651502798        2.5591528716       11.7666530959
        2.8576145709        2.6405533430       11.7506823137
        2.9472881343        2.7209986786       11.7212757688
        3.0329751790        2.7994626318       11.6779959047
        3.1141959409        2.8752882827       11.6224740197
        3.1909848970        2.9482149688       11.5571883098
        3.2632287275        3.0180054671       11.4838436481
        3.3301328328        3.0840256888       11.4026487788
        3.3903069897        3.1451905738       11.3129410059
        3.4424405467        3.2003780097       11.2144879148
        3.4860306139        3.2489935905       11.1083208749
        3.5215563642        3.2912042616       10.9964597839
        3.5499248988        3.3276028436       10.8808766588
        3.5716031221        3.3585307158       10.7626514770
        3.5861173074        3.3835902371       10.6420122408
        3.5923246779        3.4017577403       10.5191120120
        3.5892546119        3.4120405989       10.3947538744
        3.5768634253        3.4141765104       10.2703916072
        3.5561090840        3.4088150844       10.1474665234
        3.5282833025        3.3970137622       10.0267897001
        3.4941188267        3.3794217166        9.9086315595
        3.4533629594        3.3557868722        9.7934752897
        3.4051431817        3.3251868129        9.6826880044
        3.3488399754        3.2868296338        9.5783486257
        3.2848044274        3.2408278695        9.4822131716
        3.2143979543        3.1883647361        9.3946516156
        3.1393608218        3.1311338689        9.3145524475
        3.0610100746        3.0704790445        9.2404336484
        2.0533403347        1.9882211571       11.3251765285
        2.0830457813        2.0174103156       11.4401071801
        2.1310193808        2.0631338744       11.5424538220
        2.1952594320        2.1245574104       11.6267674301
        2.2712813329        2.1981058552       11.6899503554
        2.3541655976        2.2792209331       11.7325563444
        2.4402270033        2.3641046783       11.7582938588
        2.5275583661        2.4505738673       11.7718469971
        2.6154651774        2.5377915110       11.7763063545
        2.7034598631        2.6253553536       11.7718287224
        2.7906105848        2.7125286200       11.7563079183
        2.8756114167        2.7981241982       11.7274314798
        2.9573226231        2.8809558626       11.6845758023
        3.0351947218        2.9603265835       11.6292413417
        3.1091635203        3.0360624908       11.5639180174
        3.1791046356        3.1080516664       11.4904443759
        3.2443364581        3.1757111637       11.4091813879
        3.3036309917        3.2378877352       11.3195318996
        3.3557638841        3.2933294526       11.2212088044
        3.4001684749        3.3413603252       11.1151211722
        3.4371460303        3.3821821597       11.0031899024
        3.4674280878        3.4165079992       10.8873726414
        3.4914136788        3.4447815812       10.7688151119
        3.5086847495        3.4666035547       10.6478371907
        3.5182008107        3.4808515388       10.5246540092
        3.5190406123        3.4864367252       10.4000802498
        3.5111171986        3.4831172365       10.2755463234
        3.4952988850        3.4717166465       10.1524596101
        3.4728247388        3.4535480616       10.0315950175
        3.4444531748        3.4294697284        9.9131773822
        3.4099942687        3.3992999375        9.7976339605
        3.3685845301        3.3620519164        9.6862878926
        3.3194970883        3.3168196672        9.5812222196
        3.2628811303        3.2636476125        9.4842637939
        3.1998946538        3.2037383955        9.3958960650
        3.1321653649        3.1388686321        9.3151045228
        3.0610100746        3.0704790445        9.2404336484
        2.0533403347        1.9882211571       11.3251765285
        2.0762085127        2.0253538265       11.4393834334
        2.1161693885        2.0785891323       11.5415995728
        2.1719101069        2.1473225360       11.6262936030
        2.2395974576        2.2280602550       11.6900669215
        2.3146833427        2.3161782835       11.7331088264
        2.3935193064        2.4077712415       11.7588987494
        2.4740400836        2.5006083492       11.7721443623
        2.5554159828        2.5938756198       11.7761732234
        2.6371894641        2.6871870870       11.7714235734
        2.7186078647        2.7797321249       11.7559286179
        2.7985581642        2.8701541838       11.7272917031
        2.8759741616        2.9570870009       11.6846548887
        2.9502365283        3.0397500005       11.6293060784
        3.0211647816        3.1180228590       11.5636927952
        3.0886037170        3.1919254573       11.4898050693
        3.1519824211        3.2609757287       11.4082382693
        3.2102586701        3.3240184342       11.3185512849
        3.2623326467        3.3797138984       11.2204377548
        3.3076021486        3.4272941203       11.1146415456
        3.3461874406        3.4669349244       11.0028969872
        3.3786080137        3.4993896739       10.8870789192
        3.4051452109        3.5251470575       10.7683945271
        3.4254028010        3.5437987274       10.6473092796
        3.4384435565        3.5541661179       10.5241633157
        3.4434274659        3.5551318789       10.3998042433
        3.4402640743        3.5465349244       10.2756046977
        3.4297542883        3.5294037042       10.1528772383
        3.4130782888        3.5053046740       10.0323179935
        3.3909941265        3.4752800487        9.9141054543
        3.3633479138        3.4391845570        9.7986395416
        3.3292720353        3.3959335081        9.6872254662
        3.2879330964        3.3444769906        9.5819527912
        3.2392828917        3.2847670018        9.4847035408
        3.1842743031        3.2180104216        9.3960620093
        3.1244138564        3.1460648714        9.3151128626
        3.0610100746        3.0704790445        9.2404336484
        2.0533403347        1.9882211571       11.3251765285
        2.0691329573        2.0329471524       11.4377953018
        2.1006420482        2.0931439063       11.5391070360
        2.1473294398        2.1685435823       11.6235179214
        2.2060994045        2.2558343670       11.6873195062
        2.2728417435        2.3503722000       11.7302920543
        2.3439756015        2.4481313952       11.7556248864
        2.4172710208        2.5467987046       11.7680092817
        2.4917344495        2.6455705658       11.7710213653
        2.5669120908        2.7441049246       11.7654422302
        2.6422257260        2.8415652161       11.7495181929
        2.7167746964        2.9364545337       11.7208052625
        2.7895955494        3.0272113224       11.6781855963
        2.8600173168        3.1129213639       11.6226645555
        2.9277380057        3.1934711268       11.5565825294
        2.9925474313        3.2690069845       11.4820671904
        3.0539603384        3.3391929094       11.3999941544
        3.1111133471        3.4029400058       11.3101507012
        3.1630493404        3.4588684440       11.2122606549
        3.2091645266        3.5061158958       11.1068997208
        3.2494290993        3.5447851402       10.9955694702
        3.2841625141        3.5756115259       10.8800089187
        3.3135175659        3.5990951397       10.7614603460
        3.3370940539        3.6148232461       10.6405418795
        3.3540294409        3.6215883202       10.5177397108
        3.3635415645        3.6182655392       10.3939448803
        3.3655193032        3.6047712673       10.2704644578
        3.3606831853        3.5823162494       10.1485028581
        3.3501462614        3.5527001119       10.0286762731
        3.3346671990        3.5171498162        9.9111315025
        3.3141423908        3.4755781838        9.7962569096
        3.2877250532        3.4268271373        9.6853377835
        3.2545002844        3.3697096499        9.5804461585
        3.2142345456        3.3040677400        9.4834886888
        3.1676685080        3.2310823636        9.3951349721
        3.1161669904        3.1526688954        9.3145752672
        3.0610100746        3.0704790445        9.2404336484
        2.0533403347        1.9882211571       11.3251765285
        2.0618888726        2.0401390875       11.4353490757
        2.0845972546        2.1066990758       11.5349754028
        2.1217585019        2.1880631504       11.6184292749
        2.1710893586        2.2812055618       11.6816956933
        2.2289911227        2.3815189460       11.7241082367
        2.2919966571        2.4848498858       11.7485024923
        2.3577151822        2.5887627005       11.7595014375
        2.4249585501        2.6924424462       11.7609249781
        2.4932375809        2.7956156256       11.7539468864
        2.5621294135        2.8974757894       11.7371033613
        2.6309596324        2.9964296033       11.7079611366
        2.6989046126        3.0907170802       11.6651480111
        2.7652772174        3.1792425744       11.6093394533
        2.8296647813        3.2618444108       11.5427002423
        2.8917817087        3.3387755623       11.4674478083
        2.9511897782        3.4098750994       11.3847356900
        3.0071713800        3.4741751142       11.2946179166
        3.0589044206        3.5302963967       11.1969002465
        3.1058064708        3.5772862873       11.0920256012
        3.1477406368        3.6151520728       10.9812668537
        3.1848701447        3.6445932109       10.8662039485
        3.2172459297        3.6661293604       10.7480786110
        3.2444634973        3.6793681059       10.6276283452
        3.2657073637        3.6830799295       10.5054635739
        3.2802055923        3.6760922115       10.3825128972
        3.2877710455        3.6583148142       10.2600301118
        3.2889956515        3.6310533872       10.1391406050
        3.2848986904        3.5963006226       10.0204178240
        3.2762437471        3.5555007076        9.9040055726
        3.2630118809        3.5087110262        9.7902837204
        3.2444285535        3.4547908841        9.6804890943
        3.2195448006        3.3924642180        9.5766281025
        3.1879661514        3.3214533967        9.4805888429
        3.1502154751        3.2428671172        9.3931086978
        3.1074892251        3.1586317940        9.3134936266
        3.0610100746        3.0704790445        9.2404336484
        2.0533403347        1.9882211571       11.3251765285
        2.0545492341        2.0468837042       11.4320571294
        2.0682049892        2.1191693987       11.5292144715
        2.0954561053        2.2057447801       11.6110298127
        2.1348924903        2.3039756833       11.6731980534
        2.1835058070        2.4093615562       11.7145775846
        2.2380050435        2.5176232636       11.7375863410
        2.2958562735        2.6261592908       11.7467159126
        2.3556475551        2.7341094867       11.7460070694