VARIABLES = X, Y, Z
ZONE I=       37  J=       73  F=POINT
        2.0479724480        1.9652232665       13.9582508290
        2.0696856644        1.8833397377       14.0469643400
        2.1034420060        1.8078237551       14.1362525857
        2.1580393212        1.7453081595       14.2225565380
        2.2360499710        1.7010362180       14.3005411894
        2.3337972627        1.6772393777       14.3654537082
        2.4441299537        1.6724719176       14.4152829759
        2.5601119282        1.6824751540       14.4513461870
        2.6774705662        1.7022106549       14.4770043756
        2.7947754071        1.7279640650       14.4954374251
        2.9119287519        1.7584078430       14.5079314464
        3.0284819077        1.7942169017       14.5136390205
        3.1430054114        1.8367373805       14.5106950171
        3.2536478033        1.8866884924       14.4977114985
        3.3590607973        1.9436565231       14.4746025153
        3.4587534160        2.0064649649       14.4423476256
        3.5526148435        2.0739103251       14.4021188468
        3.6401415203        2.1452393122       14.3545586625
        3.7201308549        2.2200985953       14.2997148992
        3.7911245697        2.2981573253       14.2375295781
        3.8521761116        2.3788061646       14.1683626676
        3.9032199623        2.4611697786       14.0931017539
        3.9446848802        2.5443426439       14.0128324111
        3.9766813581        2.6275775658       13.9284226856
        3.9984956028        2.7102563697       13.8403989557
        4.0088854186        2.7917213092       13.7491831428
        4.0069968865        2.8711918481       13.6554244775
        3.9931762709        2.9478988020       13.5600911041
        3.9689962410        3.0213325283       13.4642287521
        3.9364146128        3.0913537342       13.3686129714
        3.8966518158        3.1580036417       13.2736295062
        3.8495821800        3.2211073816       13.1795217135
        3.7940390783        3.2799668641       13.0868188045
        3.7287683576        3.3334047112       12.9965858182
        3.6533467010        3.3801676653       12.9102621582
        3.5684954485        3.4194290478       12.8291741472
        3.4757167224        3.4510592881       12.7540582425
        2.0479724480        1.9652232665       13.9582508290
        2.0660579653        1.8900439263       14.0539903266
        2.0968806596        1.8218401011       14.1503657648
        2.1487201630        1.7671218688       14.2437565851
        2.2238502651        1.7307810775       14.3288152641
        2.3186239136        1.7145977803       14.4007567882
        2.4261144108        1.7168409971       14.4574177799
        2.5395662164        1.7332999247       14.4998382723
        2.6547012652        1.7592315502       14.5311085129
        2.7699511070        1.7911872522       14.5543172073
        2.8851190634        1.8278272644       14.5709038291
        2.9998134295        1.8695108601       14.5803036670
        3.1127701022        1.9171725878       14.5808452091
        3.2222475227        1.9712908453       14.5710911430
        3.3268302644        2.0314993388       14.5506946890
        3.4258262729        2.0968498982       14.5203538249
        3.5189701601        2.1663230822       14.4811366937
        3.6058107717        2.2391507005       14.4338138874
        3.6853953272        2.3147935362       14.3786724520
        3.7565255103        2.3927283720       14.3158167788
        3.8183089137        2.4722982480       14.2455885852
        3.8704669587        2.5527429246       14.1687268577
        3.9131026055        2.6333241519       14.0861822922
        3.9461405030        2.7133855071       13.9988118337
        3.9689683705        2.7922864844       13.9072481943
        3.9806525521        2.8693055389       13.8120410955
        3.9806072208        2.9436563977       13.7139030445
        3.9691871757        3.0146552101       13.6138006351
        3.9476955358        3.0819134380       13.5127837899
        3.9177357835        3.1453685916       13.4116961237
        3.8803393879        3.2050710984       13.3110349809
        3.8354710158        3.2608408339       13.2111178661
        3.7822335828        3.3120306696       13.1124544460
        3.7195991498        3.3575815190       13.0160339091
        3.6471597157        3.3963598778       12.9232747414
        3.5654463873        3.4275795000       12.8356245235
        3.4757167224        3.4510592881       12.7540582425
        2.0479724480        1.9652232665       13.9582508290
        2.0621851856        1.8972636979       14.0602792687
        2.0895453551        1.8367467564       14.1629989378
        2.1378676086        1.7900557514       14.2627830672
        2.2092599760        1.7617662726       14.3543168429
        2.3002313253        1.7532846955       14.4327788415
        2.4041405418        1.7626724911       14.4958011230
        2.5144096365        1.7857893020       14.5440903286
        2.6267306736        1.8181379557       14.5804553879
        2.7393892858        1.8564549802       14.6079401414
        2.8521001326        1.8993448964       14.6282017680
        2.9645309505        1.9468833541       14.6409841335
        3.0755589660        1.9996764166       14.6447715905
        3.1835168837        2.0580283019       14.6380059099
        3.2869135970        2.1216158546       14.6200359289
        3.3848993921        2.1896478903       14.5913048445
        3.4771299851        2.2612087776       14.5528601638
        3.5632575867        2.3354896824       14.5056790392
        3.6425550497        2.4118106655       14.4503010851
        3.7139865039        2.4895302514       14.3869301948
        3.7766046730        2.5679842796       14.3157979776
        3.8298784422        2.6465044553       14.2374424170
        3.8736546708        2.7244593987       14.1527030391
        3.9078155839        2.8012429903       14.0625038176
        3.9319777157        2.8762091321       13.9676559124
        3.9455439987        2.9486318502       13.8688517075
        3.9481057640        3.0177684307       13.7668197150
        3.9398715066        3.0830150156       13.6624555153
        3.9217457966        3.1440459962       13.5567710351
        3.8949389005        3.2008106563       13.4506840462
        3.8603466880        3.2533475991       13.3448396415
        3.8181188719        3.3015085879       13.2396592744
        3.7677020099        3.3447615852       13.1356332407
        3.7083152076        3.3822097159       13.0336500323
        3.6395413210        3.4128392431       12.9350792933
        3.5616812883        3.4358751669       12.8414764803
        3.4757167224        3.4510592881       12.7540582425
        2.0479724480        1.9652232665       13.9582508290
        2.0580900232        1.9049383358       14.0657823701
        2.0814788759        1.8524093959       14.1740528465
        2.1255551953        1.8139016482       14.2794825599
        2.1923885295        1.7937261778       14.3768291883
        2.2787568649        1.7929977168       14.4612295411
        2.3783611718        1.8096334516       14.5300685832
        2.4848068025        1.8395647500       14.5836803382
        2.5937431752        1.8784831037       14.6245929763
        2.7033020805        1.9232456036       14.6558453016
        2.8131052764        1.9723858663       14.6793539569
        2.9228665155        2.0257444714       14.6951744296
        3.0315810009        2.0836708149       14.7019048860
        3.1376421574        2.1463293183       14.6978151162
        3.2395026808        2.2134078595       14.6819385856
        3.3362078325        2.2842007306       14.6545121057
        3.4273879393        2.3578447818       14.6166403227
        3.5128089817        2.4335005091       14.5695562218
        3.5919175434        2.5104068866       14.5140328717
        3.6637532122        2.5878605398       14.4502973081
        3.7272513750        2.6651955135       14.3783925047
        3.7816402303        2.7417885185       14.2986318703
        3.8265978218        2.8170608808       14.2117909509
        3.8620743215        2.8904468440       14.1189423587
        3.8879771803        2.9613413894       14.0211322978
        3.9040182235        3.0290793557       13.9191896284
        3.9098642418        3.0929891263       13.8137991373
        3.9054619347        3.1525100152       13.7057166764
        3.8912506994        3.2073037861       13.5958820870
        3.8680554559        3.2572739184       13.4852998529
        3.8366973317        3.3024492248       13.3747997854
        3.7975784600        3.3427696483       13.2649351680
        3.7505254699        3.3778844368       13.1561774380
        3.6950017658        3.4070902664       13.0492933079
        3.6305556698        3.4294791820       12.9455789643
        3.5572313847        3.4442539275       12.8466825633
        3.4757167224        3.4510592881       12.7540582425
        2.0479724480        1.9652232665       13.9582508290
        2.0537996255        1.9130049782       14.0704570932
        2.0727382636        1.8686922689       14.1834404806
        2.1118801847        1.8384512577       14.2937181662
        2.1733747343        1.8263926684       14.3961553774
        2.2543705050        1.8334230378       14.4858436401
        2.3489657728        1.8573667133       14.5598899769
        2.4509644863        1.8942147173       14.6182307926
        2.5559694269        1.9397896079       14.6631180518
        2.6619479932        1.9910196858       14.6976129625
        2.7684122978        2.0463706255       14.7239126327
        2.8750994760        2.1055003323       14.7423753443
        2.9811055885        2.1685571258       14.7516802910
        3.0848909814        2.2355758291       14.7499004078
        3.1848882151        2.3062116071       14.7357670180
        3.2800859518        2.3797849713       14.7093621064
        3.3701160157        2.4554618533       14.6719037115
        3.4548386400        2.5324039346       14.6248992131
        3.5338154054        2.6098271446       14.5693190351
        3.6061023266        2.6869989181       14.5053461934
        3.6705022079        2.7632304445       14.4327842725
        3.7260467508        2.8378884435       14.3517234955
        3.7723219101        2.9104089585       14.2629264366
        3.8094031439        2.9802830411       14.1676770894
        3.8374865136        3.0470080776       14.0672869393
        3.8565304695        3.1100361398       13.9627002645
        3.8661936466        3.1687695655       13.8545031084
        3.8661051279        3.2226334857       13.7432596944
        3.8562372897        3.2712008020       13.6298175756
        3.8370709642        3.3142899524       13.5152817834
        3.8094021764        3.3519438802       13.4006948952
        3.7739121955        3.3842558432       13.2867610755
        3.7308031625        3.4111137465       13.1739327083
        3.6797606435        3.4320220095       13.0628401748
        3.6202780585        3.4461527584       12.9546877495
        3.5521332622        3.4526532317       12.8512004124
        3.4757167224        3.4510592881       12.7540582425
        2.0479724480        1.9652232665       13.9582508290
        2.0493453826        1.9213992311       14.0742674982
        2.0633939410        1.8854594986       14.1910878457
        2.0969619532        1.8634975304       14.3053711612
        2.1523853183        1.8594962135       14.4121215522
        2.2272742689        1.8742372543       14.5063859397
        2.3161802779        1.9054955199       14.5849747641
        2.4131303390        1.9493031172       14.6474124262
        2.5136835000        2.0015595707       14.6956772650
        2.6156293899        2.0592266481       14.7328649262
        2.7183447435        2.1207137101       14.7614576015
        2.8215632317        2.1855443606       14.7821063315
        2.9244721712        2.2537062203       14.7935576527
        3.0256190125        2.3251008829       14.7936897500
        3.1234585451        2.3993076198       14.7809584656
        3.2169598015        2.4756304753       14.7553295444
        3.3057589953        2.5532615344       14.7181588942
        3.3897736723        2.6314037976       14.6712198353
        3.4686291687        2.7092977668       14.6156431491
        3.5413721743        2.7861940559       14.5515276840
        3.6066957699        2.8613464683       14.4784218489
        3.6634928109        2.9340607231       14.3962104471
        3.7113068325        3.0037664886       14.3056793011
        3.7503401117        3.0700421810       14.2083514636
        3.7810241649        3.1325469709       14.1058040350
        3.8034892415        3.1908892293       13.9990711227
        3.8173379047        3.2445295782       13.8886061249
        3.8218894136        3.2928178351       13.7747584137
        3.8167020847        3.3351770856       13.6582782800
        3.8019711461        3.3713249315       13.5403789913
        3.7784931879        3.4013568200       13.4223255352
        3.7472106416        3.4255801517       13.3049776620
        3.7086592025        3.4441603946       13.1887677462
        3.6627112931        3.4568052803       13.0741846776
        3.6087944196        3.4627341262       12.9623310569
        3.5464285092        3.4610105840       12.8549931301
        3.4757167224        3.4510592881       12.7540582425
        2.0479724480        1.9652232665       13.9582508290
        2.0447626235        1.9300557569       14.0771845269
        2.0535286674        1.9025763229       14.1969346567
        2.0809403370        1.8888361922       14.3143425365
        2.1296134932        1.8927676237       14.4245797770
        2.1977014977        1.9151102444       14.5226551740
        2.2802665001        1.9536286748       14.6050757404
        2.3715916011        2.0043763438       14.6709467200
        2.4672011750        2.0632806067       14.7219694423
        2.5646922698        2.1273059598       14.7612700848
        2.6632750739        2.1948185405       14.7916091098
        2.7626513183        2.2652488229       14.8139269772
        2.8620954944        2.3384536208       14.8270480022
        2.9602695721        2.4141935939       14.8286821349
        3.0556922643        2.4919364150       14.8170402476
        3.1473373383        2.5709412400       14.7919869830
        3.2348312305        2.6504332662       14.7550048981
        3.3181050849        2.7296944811       14.7081035682
        3.3968101641        2.8080252319       14.6525479317
        3.4699865519        2.8846605160       14.5883489454
        3.5362648055        2.9587621829       14.5148194761
        3.5944564997        3.0295347250       14.4316642652
        3.6440823412        3.0963911082       14.3397020183
        3.6854284318        3.1590263528       14.2406807993
        3.7190774149        3.2173052105       14.1364165300
        3.7452602580        3.2710124254       14.0280129812
        3.7635145434        3.3196446579       13.9157885660
        3.7729102425        3.3624289713       13.7998880472
        3.7726817675        3.3986043985       13.6809721721
        3.7628005083        3.4277941894       13.5603572325
        3.7440615070        3.4501878544       13.4395157187
        3.7176112715        3.4663507691       13.3194507724
        3.6842487718        3.4767401215       13.2005738407
        3.6439913636        3.4812457558       13.0832385434
        3.5962006358        3.4790999069       12.9684461565
        3.5401633225        3.4692640106       12.8580296023
        3.4757167224        3.4510592881       12.7540582425
        2.0479724480        1.9652232665       13.9582508290
        2.0400902233        1.9389088326       14.0791862315
        2.0432363456        1.9199102758       14.2009349417
        2.0639738955        1.9142674013       14.3205543763
        2.1052774266        1.9259403582       14.4334104116
        2.1659158367        1.9557088283       14.5344868389
        2.2415211914        2.0013659360       14.6199913019
        2.3266738361        2.0589693186       14.6886075357
        2.4168789422        2.1244300174       14.7417488160
        2.5095268986        2.1946872741       14.7825532583
        2.6036275041        2.2680740295       14.8140453164
        2.6988207017        2.3439618102       14.8374619458
        2.7944655887        2.4221021276       14.8517399079
        2.8893671479        2.5021104518       14.8544675548
        2.9821458195        2.5833168661       14.8436392429
        3.0717954111        2.6649153490       14.8190070062
        3.1579102030        2.7461703532       14.7821350772
        3.2403918795        2.8264710024       14.7352239062
        3.3188921109        2.9052030697       14.6796619268
        3.3924645551        2.9815869594       14.6154050635
        3.4597345385        3.0546690208       14.5415810937
        3.5194830380        3.1235253729       14.4577418576
        3.5712049746        3.1875438880       14.3647195575
        3.6152019704        3.2465504098       14.2644344548
        3.6521120243        3.3006351289       14.1588938296
        3.6822073692        3.3497636194       14.0492621086
        3.7049816128        3.3934526163       13.9357535907
        3.7193481457        3.4307860041       13.8183494280
        3.7243248848        3.4608161526       13.6976367029
        3.7197156562        3.4830948254       13.5750133173
        3.7062890459        3.4979388139       13.4521191034
        3.6853124775        3.5061892619       13.3300725798
        3.6577618184        3.5085828392       13.2092645276
        3.6237563769        3.5051581245       13.0899311393
        3.5826016396        3.4951304143       12.9729825297
        3.5333880711        3.4773525030       12.8602847683
        3.4757167224        3.4510592881       12.7540582425
        2.0479724480        1.9652232665       13.9582508290
        2.0353701304        1.9478928717       14.0802579437
        2.0326206914        1.9373323052       14.2030575370
        2.0462380559        1.9395975178       14.3239510178
        2.0796185292        1.9587532757       14.4385239772
        2.1322098653        1.9957009993       14.5417551100
        2.2002746769        2.0483036645       14.6295666198
        2.2787393878        2.1126114086       14.7002220077
        2.3631127676        2.1844793448       14.7548282316
        2.4505675634        2.2607930101       14.7965043847
        2.5398784531        2.3398567234       14.8285193061
        2.6305909931        2.4210120267       14.8524232086
        2.7221430209        2.5039317427       14.8673200625
        2.8135071742        2.5880901765       14.8707385940
        2.9034391913        2.6726629497       14.8604817123
        2.9909652791        2.7567599156       14.8361546884
        3.0756259497        2.8396816055       14.7993315216
        3.1572556688        2.9209391529       14.7523467608
        3.2354883350        3.0000238331       14.6967150139
        3.3094158919        3.0761514876       14.6323988280
        3.3777135794        3.1482476541       14.5584143329
        3.4391739599        3.2152457188       14.4741876653
        3.4932533377        3.2764945943       14.3805223237
        3.5401959382        3.3319416379       14.2794294334
        3.5806038981        3.3818956488       14.1730468928
        3.6147434610        3.4264971122       14.0626017186
        3.6420990163        3.4652822966       13.9482610997
        3.6615284353        3.4972044599       13.8299057233
        3.6719397214        3.5211566195       13.7080685817
        3.6730165740        3.5366503355       13.5841932192
        3.6654642967        3.5441461814       13.4600266007
        3.6505787236        3.5447495998       13.3367631520
        3.6294229756        3.5394412635       13.2147753154
        3.6021782593        3.5283691181       13.0942093903
        3.5681102884        3.5107106460       12.9759021467
        3.5261568253        3.4852164337       12.8617398426
        3.4757167224        3.4510592881       12.7540582425
        2.0479724480        1.9652232665       13.9582508290
        2.0306468251        1.9569429049       14.0803923825
        2.0217937768        1.9547178155       14.2032864575
        2.0279231062        1.9646409449       14.3244999670
        2.0528994912        1.9909537106       14.4398625514
        2.0969033146        2.0347605765       14.5443740696
        2.1568889607        2.0940407926       14.6336940891
        2.2281851631        2.1648328482       14.7056707835
        2.3063356622        2.2429005949       14.7610814105
        2.3882899696        2.3250448946       14.8029855490
        2.4725531762        2.4095393394       14.8348717727
        2.5585391192        2.4957208063       14.8586255944
        2.6457506243        2.5832147285       14.8735858290
        2.7333450159        2.6713690297       14.8772942094
        2.8202436041        2.7591958215       14.8673865181
        2.9055207531        2.8456984785       14.8432740755
        2.9886501613        2.9301962255       14.8064521657
        3.0693696107        3.0123224336       14.7593244803
        3.1472789352        3.0916915278       14.7035405965
        3.2215263127        3.1675387605       14.6391469780
        3.2908806977        3.2386846840       14.5651349228
        3.3541806839        3.3039173785       14.4808334639
        3.4108336012        3.3625242458       14.3869643027
        3.4609659849        3.4145395686       14.2855338511
        3.5050684727        3.4604591956       14.1787432518
        3.5433630224        3.5005865328       14.0678895808
        3.5753564843        3.5344948730       13.9531627536
        3.5999394077        3.5610499860       13.8344163655
        3.6160017404        3.5790357740       13.7121494531
        3.6231458512        3.5879558243       13.5878068729
        3.6219773924        3.5884111613       13.4631722622
        3.6137349424        3.5817339411       13.3394715328
        3.5994872156        3.5690972248       13.2170634265
        3.5794426848        3.5507194691       13.0960377274
        3.5528460352        3.5257309855       12.9771796917
        3.5185268566        3.4927979401       12.8623824847
        3.4757167224        3.4510592881       12.7540582425
        2.0479724480        1.9652232665       13.9582508290
        2.0259667175        1.9659950146       14.0795896998
        2.0108744539        1.9719476194       14.2016211293
        2.0092320122        1.9892219844       14.3221925529
        2.0254020276        2.0223007470       14.4374007461
        2.0603408538        2.0725721310       14.5422984718
        2.1117552486        2.1381850787       14.6323134221
        2.1754394915        2.2151717915       14.7048878174
        2.2470135051        2.2991741699       14.7604438402
        2.3232055558        2.3868738835       14.8019345674
        2.4022180639        2.4765040461       14.8330376634
        2.4832895627        2.5674187446       14.8559947041
        2.5659626609        2.6592330998       14.8704509706
        2.6495858849        2.7511949674       14.8740400000
        2.7332736858        2.8421513572       14.8642588759
        2.8161722610        2.9309722768       14.8402773566
        2.8976895933        3.0169632554       14.8034192099
        2.9774478989        3.0998655854       14.7560869891
        3.0549950985        3.1794324621       14.7000707509
        3.1295394596        3.2549561086       14.6355783527
        3.1999702162        3.3251878211       14.5616660923
        3.2651993797        3.3887789286       14.4775984614
        3.3245855698        3.4449259627       14.3839652913
        3.3781009813        3.4936950956       14.2826737351
        3.4260712000        3.5357184033       14.1759198113
        3.4686413798        3.5714462314       14.0650757498
        3.5053573306        3.6005202606       13.9504212049
        3.5352030432        3.6217829388       13.8318536892
        3.5571185453        3.6339718772       13.7098572085
        3.5706561187        3.6366103657       13.5858338509
        3.5762954569        3.6304189759       13.4615349776
        3.5751510849        3.6169012229       13.3381756867
        3.5682317461        3.5973642645       13.2161075394
        3.5557454303        3.5720644878       13.0953981257
        3.5369334481        3.5400875858       12.9768027529
        3.5105581184        3.5000412760       12.8622069189
        3.4757167224        3.4510592881       12.7540582425
        2.0479724480        1.9652232665       13.9582508290
        2.0213774980        1.9749867199       14.0778574604
        1.9999866683        1.9889087764       14.1980764737
        1.9903780391        2.0131766399       14.3170443138
        1.9974243153        2.0525685648       14.4311463278
        2.0228894719        2.1088360329       14.5355242381
        2.0652909514        2.1803594808       14.6254117014
        2.1209581307        2.2631816453       14.6978600258
        2.1856392323        2.3527975584       14.7529124409
        2.2558530150        2.4457314530       14.7933651307
        2.3294691446        2.5401574025       14.8230470095
        2.4055007820        2.6354635887       14.8445683011
        2.4834916643        2.7312963749       14.8579472833
        2.5629752334        2.8268410233       14.8609897314
        2.6432831359        2.9207864728       14.8510913922
        2.7236663663        3.0118405873       14.8271449558
        2.8034850374        3.0992506765       14.7902178380
        2.8822393878        3.1828380644       14.7426390865
        2.9594057085        3.2625058313       14.6863328127
        3.0342397549        3.3376490589       14.6217312011
        3.1057577793        3.4070006218       14.5480381542
        3.1729649281        3.4690944648       14.4644918774
        3.2351842899        3.5230060704       14.3715156932
        3.2922246633        3.5687679027       14.2708379155
        3.3442179870        3.6070861616       14.1645853605
        3.3912052542        3.6385385708       14.0542011434
        3.4327681455        3.6628717022       13.9401048813
        3.4680114259        3.6789759980       13.8222955767
        3.4959654272        3.6856064775       13.7012587154
        3.5161560639        3.6823257683       13.5783178694
        3.5289249412        3.6699413493       13.4551353254
        3.5352202928        3.6500659678       13.3328812671
        3.5359455467        3.6240857688       13.2119076218
        3.5312881500        3.5922731632       13.0922902832
        3.5205006546        3.5536824511       12.9747719860
        3.5023127144        3.5068931338       12.8612140013
        3.4757167224        3.4510592881       12.7540582425
        2.0479724480        1.9652232665       13.9582508290
        2.0169274490        1.9838573094       14.0752105582
        1.9892576726        2.0054952980       14.1926828353
        1.9715821700        2.0363542966       14.3090951095
        1.9692781216        2.0815497299       14.4211405128
        1.9849355193        2.1432734554       14.5240887916
        2.0179363600        2.2202084008       14.6130235826
        2.0652198282        2.3084381051       14.6846270969
        2.1227261789        2.4032934517       14.7385444848
        2.1867883007        2.5010998676       14.7773643034
        2.2549183938        2.5999437320       14.8050211339
        2.3258490869        2.6992563208       14.8244926945
        2.3990729511        2.7987581468       14.8362237783
        2.4742876054        2.8976192724       14.8382697202
        2.5510600440        2.9943884474       14.8279740042
        2.6287862686        3.0875860022       14.8039384867
        2.7068124716        3.1763497958       14.7669078635
        2.7845242060        3.2605413737       14.7190673002
        2.8613071047        3.3402160172       14.6624511246
        2.9364377617        3.4149173916       14.5977528886
        3.0090470188        3.4834184676       14.5243902742
        3.0782434869        3.5441652052       14.4416185779
        3.1433376493        3.5960887388       14.3496836008
        3.2039908282        3.6391240573       14.2500809444
        3.2601373488        3.6739877346       14.1448139553
        3.3116940725        3.7013622548       14.0353797522
        3.3582592510        3.7211311797       13.9223623527
        3.3990548294        3.7322970167       13.8058984948
        3.4332141711        3.7336855286       13.6864877631
        3.4602516604        3.7249078678       13.5653527882
        3.4803710874        3.7068205206       13.4440290785
        3.4943357131        3.6810870048       13.3236198597
        3.5029184676        3.6491288187       13.2044850552
        3.5062740973        3.6112259606       13.0867319717
        3.5036778032        3.5664232732       12.9711012508
        3.4938543652        3.5133029411       12.8594112345
        3.4757167224        3.4510592881       12.7540582425
        2.0479724480        1.9652232665       13.9582508290
        2.0126647314        1.9925481193       14.0716710677
        1.9788161525        2.0216086921       14.1854857480
        1.9530703176        2.0586191999       14.2984089559
        1.9412856298        2.1090583063       14.4074579440
        1.9468814941        2.1756311919       14.5080712253
        1.9701512591        2.2574035866       14.5952316418
        2.0087220582        2.3505454142       14.6652815676
        2.0588017676        2.4502162403       14.7174562328