VARIABLES = X, Y, Z
ZONE I=       37  J=       73  F=POINT
        2.0251840452        1.9152613666       15.5853449100
        2.0440370825        1.8282488347       15.6686042505
        2.0637366135        1.7421232700       15.7531770990
        2.0965316496        1.6635155038       15.8400102782
        2.1509093841        1.5998181821       15.9266327958
        2.2285362963        1.5572628397       16.0078292034
        2.3246659563        1.5383840326       16.0785115584
        2.4315408551        1.5407141415       16.1366830489
        2.5424689412        1.5579451656       16.1843121146
        2.6541070776        1.5831105958       16.2255294258
        2.7660255999        1.6118848651       16.2635461259
        2.8786003417        1.6440029896       16.2985401459
        2.9912021829        1.6821334293       16.3278859751
        3.1019803779        1.7292648630       16.3482828212
        3.2089947078        1.7865109318       16.3580135523
        3.3113690677        1.8526604319       16.3576973969
        3.4093299026        1.9253739824       16.3492399644
        3.5031467986        2.0028003650       16.3340795558
        3.5920246182        2.0843464839       16.3121964545
        3.6740133650        2.1702432307       16.2825291096
        3.7470460430        2.2605521380       16.2442250246
        3.8101758744        2.3545525292       16.1975669447
        3.8638921442        2.4509234755       16.1438534510
        3.9092094436        2.5483681010       16.0844887061
        3.9463199781        2.6460155795       16.0201695777
        3.9740066448        2.7432811807       15.9508547320
        3.9903744251        2.8394561224       15.8764299407
        3.9943198689        2.9335453141       15.7973783294
        3.9865031243        3.0245603322       15.7148405573
        3.9689785305        3.1119493276       15.6300746420
        3.9437479881        3.1956506625       15.5438835066
        3.9113910011        3.2756085639       15.4565603653
        3.8708555454        3.3511585040       15.3683608539
        3.8205387943        3.4209103632       15.2799862266
        3.7597552815        3.4833663681       15.1925598998
        3.6894299884        3.5378247124       15.1070967584
        3.6115429670        3.5847709836       15.0239959607
        2.0251840452        1.9152613666       15.5853449100
        2.0397450961        1.8344287852       15.6756797305
        2.0557642659        1.7547860557       15.7673580785
        2.0850229276        1.6829839824       15.8614138163
        2.1356089626        1.6262589926       15.9553249553
        2.2091034129        1.5904250636       16.0437526448
        2.3010077996        1.5775233801       16.1215018558
        2.4039364674        1.5848482556       16.1865052642
        2.5114225728        1.6063092159       16.2406425286
        2.6200762772        1.6354910828       16.2878846541
        2.7292522137        1.6685728433       16.3312417919
        2.8391711153        1.7053844973       16.3707597495
        2.9492678819        1.7482063478       16.4038498930
        3.0579318380        1.7994221329       16.4274058416
        3.1634359234        1.8597228253       16.4399228245
        3.2649029620        1.9278913364       16.4420777616
        3.3623338797        2.0019144979       16.4356093607
        3.4557281465        2.0802928851       16.4216616323
        3.5441998200        2.1625371764       16.3999921925
        3.6259711690        2.2486942603       16.3695410683
        3.6992832953        2.3385438803       16.3296730473
        3.7633955324        2.4312220775       16.2809438270
        3.8187425177        2.5254903976       16.2247943756
        3.8660689729        2.6202515680       16.1625683189
        3.9052930514        2.7147699368       16.0947856017
        3.9351265974        2.8084460066       16.0212770325
        3.9538468468        2.9004802091       15.9419599983
        3.9606109988        2.9898554260       15.8574860081
        3.9562026085        3.0756973821       15.7691801722
        3.9425410407        3.1576278552       15.6783916347
        3.9213072141        3.2356727946       15.5859095980
        3.8927791263        3.3097083901       15.4919888650
        3.8558063489        3.3789297852       15.3969093350
        3.8089251260        3.4419040380       15.3014724051
        3.7517022297        3.4972903263       15.2069118179
        3.6852468787        3.5446753238       15.1142909124
        3.6115429670        3.5847709836       15.0239959607
        2.0251840452        1.9152613666       15.5853449100
        2.0352703946        1.8411699053       15.6820615718
        2.0472655110        1.7684766495       15.7801288979
        2.0724458503        1.7038339077       15.8806703835
        2.1185534825        1.6543090495       15.9811537283
        2.1871894090        1.6253221929       16.0761739263
        2.2741947742        1.6184898571       16.1604630848
        2.3725899285        1.6309498116       16.2318692244
        2.4761147878        1.6568711569       16.2921303653
        2.5813021495        1.6903631106       16.3450031150
        2.6872852425        1.7280340986       16.3932749791
        2.7941526707        1.7697434372       16.4368784187
        2.9014275067        1.8173763643       16.4732988273
        3.0077355860        1.8727648147       16.4996499941
        3.1115306024        1.9362426726       16.5146416862
        3.2119019783        2.0066076518       16.5189998228
        3.3086255395        2.0821284514       16.5142988521
        3.4014691112        2.1615811346       16.5014111862
        3.4895026828        2.2445305569       16.4799002407
        3.5711345393        2.3308532355       16.4487169233
        3.6448774657        2.4201100289       16.4074207593
        3.7101341989        2.5113549564       16.3567985823
        3.7672436330        2.6034463738       16.2984019268
        3.8166950712        2.6954498590       16.2335149409
        3.8581945379        2.7867138160       16.1625129406
        3.8904472564        2.8766025841       16.0851378814
        3.9119222879        2.9642487674       16.0013564814
        3.9219985890        3.0486565182       15.9119742742
        3.9215151028        3.1290908655       15.8184664346
        3.9122070869        3.2053357706       15.7222415130
        3.8954336919        3.2774726580       15.6240612321
        3.8712095708        3.3452903086       15.5241452313
        3.8383261314        3.4078565390       15.4228062327
        3.7954681868        3.4637299270       15.3209492971
        3.7424293854        3.5117523885       15.2199149151
        3.6804659870        3.5517956005       15.1208080126
        3.6115429670        3.5847709836       15.0239959607
        2.0251840452        1.9152613666       15.5853449100
        2.0306401085        1.8484177958       15.6877014760
        2.0382884283        1.7830774838       15.7913902726
        2.0588801337        1.7258796441       15.8976265134
        2.0998689093        1.6837227007       16.0039098447
        2.1629711791        1.6616716290       16.1048232362
        2.2444460125        1.6609916080       16.1950523922
        2.3377495033        1.6787328850       16.2723425964
        2.4368178228        1.7093426319       16.3382467897
        2.5380874075        1.7474083332       16.3962756237
        2.6404667852        1.7898912151       16.4489968775
        2.7439231501        1.8366314225       16.4962566407
        2.8480730101        1.8891361377       16.5356337007
        2.9517653575        1.9487535020       16.5644516951
        3.0536120838        2.0155237284       16.5816043536
        3.1526622565        2.0882655723       16.5878496536
        3.2484912397        2.1654709400       16.5846223239
        3.3406799320        2.2461106866       16.5725836543
        3.4282853005        2.3297600022       16.5511607121
        3.5098898018        2.4161467675       16.5193281656
        3.5842247180        2.5046783525       16.4767964021
        3.6507765869        2.5943837269       16.4245124067
        3.7097656866        2.6842271626       16.3640892658
        3.7614574242        2.7734008737       16.2967559724
        3.8054087749        2.8612934503       16.2227920498
        3.8403661225        2.9472196810       16.1419042381
        3.8649875019        3.0302685200       16.0541284111
        3.8788230001        3.1095009090       15.9604006071
        3.8827065270        3.1843350547       15.8623013263
        3.8781622008        3.2546997518       15.7612644772
        3.8662493696        3.3207041539       15.6580169561
        3.8467682431        3.3820416578       15.5527544228
        3.8184874761        3.4376753339       15.4458326957
        3.7802355906        3.4861899783       15.3382583554
        3.7319937055        3.5266269488       15.2314678339
        3.6751211656        3.5591278311       15.1265984964
        3.6115429670        3.5847709836       15.0239959607
        2.0251840452        1.9152613666       15.5853449100
        2.0258837827        1.8561149822       15.6925569141
        2.0288895822        1.7984665418       15.8010552696
        2.0444213803        1.7489310701       15.9121479779
        2.0797024686        1.7142502089       16.0234088029
        2.1366491264        1.6991857635       16.1294584280
        2.2120051458        1.7047286584       16.2249546440
        2.2996903883        1.7279004286       16.3075175827
        2.3938356788        1.7634265963       16.3784787338
        2.4907725514        1.8063123132       16.4410905970
        2.5891825894        1.8537924821       16.4977272896
        2.6889108375        1.9056478858       16.5481894088
        2.7896564639        1.9630352626       16.5901645010
        2.8904704682        2.0268920275       16.6211557723
        2.9901080002        2.0970268780       16.6401858926
        3.0875891733        2.1722841106       16.6480123935
        3.1823294957        2.2513238790       16.6459548824
        3.2737699936        2.3332399255       16.6345363218
        3.3609738887        2.4175809318       16.6131200047
        3.4426705907        2.5039458410       16.5807254168
        3.5177505758        2.5916423147       16.5371690876
        3.5857325136        2.6797176932       16.4834813441
        3.6467100945        2.7672458585       16.4212829578
        3.7007650428        2.8535163988       16.3517510480
        3.7473621833        2.9379281362       16.2751191972
        3.7853185876        3.0197428749       16.1911120282
        3.8134602680        3.0980283389       16.0998508556
        3.8314521836        3.1719258748       16.0023745343
        3.8400733890        3.2410081773       15.9003233997
        3.8406296669        3.3053280257       15.7951271517
        3.8339196471        3.3650024863       15.6874776722
        3.8195839101        3.4196344871       15.5775624239
        3.7963981262        3.4681129456       15.4657889614
        3.7633185440        3.5090811247       15.3532564886
        3.7204648055        3.5417859809       15.2414799179
        3.6692512054        3.5666130264       15.1316182714
        3.6115429670        3.5847709836       15.0239959607
        2.0251840452        1.9152613666       15.5853449100
        2.0210332385        1.8642014362       15.6965914693
        2.0191334331        1.8145186066       15.8090501060
        2.0291794748        1.7727953952       15.9241211505
        2.0582200118        1.7456394402       16.0394934157
        2.1084440212        1.7375725460       16.1498708454
        2.1771367489        1.7493912820       16.2498956460
        2.2587092886        1.7781390990       16.3370369968
        2.3474937436        1.8188067671       16.4123725362
        2.4397172581        1.8667467448       16.4788963530
        2.5338339995        1.9193866202       16.5388308078
        2.6295590229        1.9764105170       16.5919854300
        2.7266532695        2.0386536433       16.6361783084
        2.8243435086        2.1067128845       16.6690597054
        2.9215165409        2.1802247843       16.6897168349
        3.0171828315        2.2580680542       16.6988609140
        3.1106436863        2.3390301247       16.6977073696
        3.2012451468        2.4222730947       16.6867034822
        3.2880692086        2.5072918447       16.6652180189
        3.3699610499        2.5935704333       16.6323413637
        3.4459154763        2.6803528251       16.5879631195
        3.5154430074        2.7667302534       16.5331333208
        3.5785130573        2.8518839348       16.4694348438
        3.6350644899        2.9351804472       16.3979953631
        3.6845155935        3.0160143478       16.3190429455
        3.7257667449        3.0936003643       16.2323604044
        3.7577788433        3.1670035549       16.1381614561
        3.7802754201        3.2354559985       16.0375586864
        3.7939420894        3.2986744883       15.9322130836
        3.7998740598        3.3568139920       15.8235302842
        3.7986584671        3.4099897217       15.7121745597
        3.7898325090        3.4577318885       15.5983427769
        3.7722034978        3.4988918225       15.4824987653
        3.7448327481        3.5321989001       15.3658184603
        3.7079249677        3.5571008320       15.2498722460
        3.6628996283        3.5741915138       15.1358290745
        3.6115429670        3.5847709836       15.0239959607
        2.0251840452        1.9152613666       15.5853449100
        2.0161223785        1.8726150965       15.6997751208
        2.0090916073        1.8311064793       15.8153147989
        2.0132769033        1.7972789007       15.9334541437
        2.0356035260        1.7776373867       16.0520359894
        2.0785943109        1.7765355246       16.1658902349
        2.1401238565        1.7946566365       16.2696532016
        2.2151216772        1.8291094737       16.3606166885
        2.2981343257        1.8751272167       16.4395740030
        2.3852922411        1.9283342109       16.5092642000
        2.4748245317        1.9862711215       16.5718044888
        2.5663066610        2.0484910749       16.6270742042
        2.6595374328        2.1155349561       16.6730528733
        2.7538917630        2.1877221131       16.7075156459
        2.8483763132        2.2645699731       16.7295565082
        2.9420093007        2.3450034361       16.7397913805
        3.0340180522        2.4279107218       16.7393275113
        3.1236917188        2.5124867320       16.7285776882
        3.2101407058        2.5981567094       16.7069684312
        3.2922999823        2.6843001332       16.6736846072
        3.3692261167        2.7701173200       16.6286696449
        3.4403940438        2.8547523998       16.5729514590
        3.5056566532        2.9374859436       16.5080458547
        3.5648450832        3.0177486432       16.4350348779
        3.6173632534        3.0949290507       16.3541681885
        3.6621945032        3.1682072935       16.2653084630
        3.6983965240        3.2366591687       16.1687563315
        3.7256998716        3.2996054264       16.0656687905
        3.7446681932        3.3568872846       15.9576979053
        3.7562023608        3.4087413812       15.8462172114
        3.7607298365        3.4552818657       15.7318778071
        3.7577380822        3.4959953809       15.6149034503
        3.7460868385        3.5297360326       15.4958136854
        3.7249180928        3.5553411558       15.3758391210
        3.6944687312        3.5724439934       15.2565785617
        3.6561144020        3.5818035219       15.1391987858
        3.6115429670        3.5847709836       15.0239959607
        2.0251840452        1.9152613666       15.5853449100
        2.0111869395        1.8812923824       15.7020844683
        1.9988420590        1.8481021542       15.8198036575
        1.9968470456        1.8221886222       15.9400776704
        2.0120488177        1.8099916966       16.0609398593
        2.0473538828        1.8157741173       16.1773876463
        2.1012666626        1.8401861180       16.2840626675
        2.1692623567        1.8804378848       16.3780560931
        2.2461199775        1.9319749766       16.4598479433
        2.3278857473        1.9906176151       16.5319225742
        2.4125686456        2.0539464477       16.5963321920
        2.4995965892        2.1213565818       16.6530827763
        2.5887848969        2.1931223556       16.7003510922
        2.6796315681        2.2693405954       16.7360300098
        2.7712502319        2.3494522546       16.7591805740
        2.8626766636        2.4324366200       16.7702839791
        2.9530921682        2.5172639819       16.7703285222
        3.0417568086        2.6031412399       16.7597131483
        3.1278178670        2.6894198325       16.7379523965
        3.2102841217        2.7753857753       16.7043395962
        3.2882471330        2.8602063624       16.6588611830
        3.3611308825        2.9430761968       16.6025009284
        3.4286807031        3.0233626614       16.5366955348
        3.4906457601        3.1005522988       16.4624884166
        3.5464350011        3.1740340100       16.3801662339
        3.5951069880        3.2429689961       16.2896757236
        3.6357801709        3.3064517853       16.1913873830
        3.6681491136        3.3638797663       16.0864735627
        3.6926348582        3.4151925572       15.9765570565
        3.7099618653        3.4606904778       15.8629815940
        3.7204451489        3.5004968142       15.7464046157
        3.7235699547        3.5340926969       15.6270929967
        3.7182668676        3.5603772272       15.5056169004
        3.7037370988        3.5783116446       15.3832352854
        3.6802020574        3.5876907740       15.2615460516
        3.6489475770        3.5893897431       15.1417016938
        3.6115429670        3.5847709836       15.0239959607
        2.0251840452        1.9152613666       15.5853449100
        2.0062641990        1.8901686949       15.7035028927
        1.9884681472        1.8653779390       15.8224856093
        1.9800324752        1.8473339933       15.9439456007
        1.9877633612        1.8424524053       16.0661401677
        2.0149901112        1.8549848909       16.1842759342
        2.0608818057        1.8856257614       16.2930158048
        2.1214878445        1.9317154910       16.3892335696
        2.1918417900        1.9888769266       16.4730691802
        2.2679205161        2.0530534654       16.5467459651
        2.3475180096        2.1218041923       16.6122774980
        2.4299078266        2.1943517682       16.6698407226
        2.5149047961        2.2707364482       16.7178439781
        2.6021102960        2.3508807442       16.7543040559
        2.6907328496        2.4341782694       16.7782314265
        2.7798280654        2.5196602355       16.7899512115
        2.8685457074        2.6063594684       16.7903253528
        2.9561331650        2.6934824647       16.7797471400
        3.0417816973        2.7803131998       16.7578303605
        3.1245679992        2.8660604046       16.7239780346
        3.2036066878        2.9498664421       16.6782095990
        3.2782649095        3.0309679551       16.6214540522
        3.3481876089        3.1088031764       16.5550688321
        3.4130572649        3.1829079280       16.4800689456
        3.4722970430        3.2526817445       16.3967864606
        3.5250312226        3.3172835970       16.3052452614
        3.5704108523        3.3758304675       16.2058616148
        3.6080626084        3.4277775153       16.0997950096
        3.6382499443        3.4731327917       15.9886248160
        3.6615347864        3.5122445853       15.8736731459
        3.6781564271        3.5452622238       15.7556251057
        3.6876363438        3.5717051475       15.6348050361
        3.6889930597        3.5905600834       15.5118258880
        3.6814721942        3.6009232247       15.3879470911
        3.6652411000        3.6027208042       15.2647359361
        3.6414548514        3.5968918629       15.1433187057
        3.6115429670        3.5847709836       15.0239959607
        2.0251840452        1.9152613666       15.5853449100
        2.0013926409        1.8991788988       15.7040206537
        1.9780576508        1.8828075093       15.8233443572
        1.9629832832        1.8725284674       15.9450352134
        1.9629642828        1.8747739947       16.0676039654
        1.9817819399        1.8938642756       16.1865083421
        2.0193012156        1.9306107614       16.2964544942
        2.0721776417        1.9825068276       16.3940900231
        2.1357262428        2.0453149875       16.4791908609
        2.2058700197        2.1150353919       16.5537059227
        2.2801892681        2.1891583541       16.6196214836
        2.3577929243        2.2667347792       16.6773150912
        2.4384798498        2.3476101294       16.7254562216
        2.5219409769        2.4315750494       16.7622010556
        2.6074721988        2.5179903224       16.7865107280
        2.6941488931        2.6059222485       16.7985511641
        2.7810945850        2.6944405714       16.7990588045
        2.8675507034        2.7827429018       16.7884252387
        2.9527569103        2.8700611111       16.7663631275
        3.0358585751        2.9555499109       16.7323757961
        3.1159921958        3.0383361250       16.6865016312
        3.1924684407        3.1176868945       16.6296064412
        3.2648358754        3.1930920879       16.5629721784
        3.3327160947        3.2641298247       16.4875970474
        3.3955485134        3.3302223882       16.4038650333
        3.4525159109        3.3905443346       16.3118676541
        3.5027850966        3.4442371423       16.2120423413
        3.5458953937        3.4907912463       16.1055093766
        3.5819418635        3.5302504885       15.9937925851
        3.6113301862        3.5629958023       15.8782005703
        3.6342463343        3.5892222360       15.7594652102
        3.6502751369        3.6085336924       15.6379804030
        3.6585390331        3.6200467043       15.5143937381
        3.6583220345        3.6230004617       15.3899387293
        3.6497106362        3.6174193084       15.2661238461
        3.6336950698        3.6042530469       15.1440375013
        3.6115429670        3.5847709836       15.0239959607
        2.0251840452        1.9152613666       15.5853449100
        1.9966115879        1.9082577808       15.7036349226
        1.9677017375        1.9002668852       15.8223783683
        1.9458554360        1.8975911129       15.9433471579
        1.9378764558        1.9067177936       16.0653298556
        1.9480178194        1.9321126297       16.1840762832
        1.9768696587        1.9747735019       16.2943629263
        2.0217315719        2.0323657686       16.3926095880
        2.0782338903        2.1007547417       16.4782071372
        2.1422613815        2.1759388684       16.5528117513
        2.2111739101        2.2553060073       16.6183831898
        2.2838952102        2.3377487757       16.6755195642
        2.3601880203        2.4229620244       16.7231783157
        2.4398230202        2.5106410340       16.7596762362
        2.5221844760        2.6001150402       16.7839370092
        2.6063730476        2.6904558517       16.7959740035
        2.6914897834        2.7807390356       16.7964038738
        2.7767706468        2.8701481204       16.7856200929
        2.8615036015        2.9578861552       16.7634305249
        2.9449048630        3.0430834352       16.7294255763
        3.0261372312        3.1248616057       16.6836449604
        3.1044590241        3.2025031334       16.6268792422
        3.1793239304        3.2755259551       16.5603351221
        3.2502913466        3.3435419803       16.4850036391
        3.3168141008        3.4060103192       16.4013286389
        3.3781298439        3.4621422495       16.3094647699
        3.4334160615        3.5111077081       16.2098521558
        3.4821177321        3.5524092060       16.1035489585
        3.5241547022        3.5860912178       15.9920096407
        3.5597744227        3.6125493206       15.8765315541
        3.5891163398        3.6320421121       15.7579062761
        3.6118429787        3.6443029795       15.6366067267
        3.6271947381        3.6486195532       15.5133089668
        3.6344971679        3.6443814536       15.3891985126
        3.6337422428        3.6316780998       15.2656999778
        3.6257296665        3.6114183787       15.1438526262
        3.6115429670        3.5847709836       15.0239959607
        2.0251840452        1.9152613666       15.5853449100
        1.9919608052        1.9173404804       15.7023497530
        1.9574938990        1.9176353170       15.8196006946
        1.9288091623        1.9223481579       15.9389051562
        1.9127307038        1.9380546149       16.0593474362
        1.9139935270        1.9694391226       16.1770075333
        1.9339408653        2.0177531730       16.2867621993
        1.9705622406        2.0808537832       16.3848070689
        2.0198467739        2.1546766610       16.4701296550
        2.0776580873        2.2351682315       16.5440736372
        2.1411184119        2.3195893910       16.6085700402
        2.2089292066        2.4066939194       16.6644568063
        2.2807853455        2.4960697521       16.7110089063
        2.3565281572        2.5873464789       16.7467284260
        2.4356426118        2.6798137781       16.7705139153
        2.5172732655        2.7725130072       16.7822293006
        2.6005086217        2.8644944222       16.7823727708
        2.6845768298        2.9549278572       16.7713423699
        2.7688071996        3.0430177662       16.7490415082
        2.8524848731        3.1279030951       16.7151400582
        2.9348045465        3.2087084231       16.6696631378
        3.0149795230        3.2847100977       16.6133089755
        3.0923703958        3.3554244940       16.5472002552
        3.1664691595        3.4204868265       16.4723242200
        3.2367353228        3.4794103406       16.3891943913
        3.3024596521        3.5314705127       16.2980336929
        3.3628344314        3.5758753858       16.1992777248
        3.4172146856        3.6121182563       16.0939050045
        3.4653433408        3.6402063082       15.9832830368
        3.5073015371        3.6605257842       15.8686902894
        3.5431746799        3.6734101799       15.7509817494
        3.5727040125        3.6787628929       15.6307156849
        3.5952582612        3.6760826775       15.5085939559
        3.6102154011        3.6649187893       15.3857383232
        3.6174723169        3.6453962744       15.2634690316
        3.6176220672        3.6183352439       15.1427655261
        3.6115429670        3.5847709836       15.0239959607
        2.0251840452        1.9152613666       15.5853449100
        1.9874800848        1.9263628893       15.7001759914
        1.9475288608        1.9347960661       15.8150386334
        1.9120073578        1.9466344409       15.9317554656
        1.8877621244        1.9685674489       16.0497167052
        1.8800101266        2.0055667126       16.1653655877
        1.8908731138        2.0592047140       16.2737096746
        1.9190844455        2.1275549354       16.3707278546
        1.9610474215        2.2065988770       16.4549892992
        2.0126260478        2.2921874845       16.5275076765
        2.0706782562        2.3814328778       16.5901867538
        2.1336271099        2.4729667827       16.6441303182
        2.2010515230        2.5663074398       16.6889674390
        2.2728515779        2.6610416825       16.7234113938
        2.3486371923        2.7564083091       16.7463393677
        2.4276329251        2.8513842755       16.7574534885
        2.5089357155        2.9449698390       16.7571213752
        2.5917623310        3.0363292227       16.7457457314
        2.6754668772        3.1247035899       16.7233356330
        2.7593927275        3.2092734300       16.6896475376
        2.8427705687        3.2891688486       16.6446847591
        2.9247807909        3.3636302902       16.5890326798
        3.0046974445        3.4321357942       16.5237091055
        3.0819397403        3.4943310611       16.4496902327
        3.1559630901        3.5498046375       16.3675687170
        3.2261075219        3.5979320253       16.2776514808
        3.2915886817        3.6379777223       16.1803762429
        3.3516853964        3.6694089896       16.0766317197
        3.4059691247        3.6921554405       15.9676772035
        3.4543448784        3.7065616688       15.8547534432
        3.4968256685        3.7130369825       15.7387718554
        3.5332195822        3.7116875453       15.6203785752
        3.5630280573        3.7022612074       15.5003023485
        3.5856972289        3.6844796403       15.3795925606
        3.6010400437        3.6584806037       15.2594499585
        3.6094370602        3.6249536584       15.1407845217
        3.6115429670        3.5847709836       15.0239959607
        2.0251840452        1.9152613666       15.5853449100
        1.9832088142        1.9352620176       15.6971311293
        1.9379014746        1.9516370666       15.8087332343
        1.8956139836        1.9702947111       15.9219661097
        1.8632085315        1.9980540202       16.0365274410
        1.8463724329        2.0402366062       16.1492501507
        1.8480258325        2.0988054769       16.2553027827
        1.8677056195        2.1720842306       16.3504592155
        1.9022975455        2.2560855199       16.4328606196