VARIABLES = X, Y, Z
ZONE I=       37  J=       73  F=POINT
        2.2450291584        2.2059256382        7.0547379925
        2.2583575624        2.0871479185        7.0874344547
        2.2752464866        1.9711019790        7.1280475504
        2.2962160860        1.8591926637        7.1778251131
        2.3216039511        1.7533777535        7.2380290072
        2.3513833220        1.6557441685        7.3093099319
        2.3851593648        1.5680028647        7.3913725028
        2.4223227273        1.4912056786        7.4830596130
        2.4622483161        1.4258383625        7.5827384815
        2.5044143510        1.3721784459        7.6887257464
        2.5483864478        1.3306152690        7.7995285226
        2.5937113247        1.3016571009        7.9138522764
        2.6398246915        1.2855844499        8.0304965773
        2.6860599519        1.2819847464        8.1483067631
        2.7317667094        1.2895224296        8.2662574209
        2.7764681510        1.3061711010        8.3836015568
        2.8199582248        1.3298456671        8.4999445641
        2.8622773963        1.3591181259        8.6151483842
        2.9035791718        1.3936476387        8.7290940835
        2.9439590619        1.4341281300        8.8414311449
        2.9833296512        1.4818298061        8.9514462096
        3.0213908303        1.5380070478        9.0580991766
        3.0576911112        1.6034574480        9.1601721404
        3.0917364099        1.6783705254        9.2564309962
        3.1230930052        1.7624199999        9.3457306247
        3.1514474979        1.8549498543        9.4270610698
        3.1766133234        1.9551218461        9.4995738818
        3.1984964870        2.0619822375        9.5626173149
        3.2170453443        2.1744852454        9.6157687010
        3.2322090493        2.2915283056        9.6588272199
        3.2439187878        2.4120171921        9.6917456447
        3.2520902337        2.5349325054        9.7145206967
        3.2566332073        2.6593528613        9.7270914227
        3.2574537685        2.7844117692        9.7292898116
        3.2544468063        2.9092044150        9.7208567116
        3.2474944454        3.0326917022        9.7015078932
        3.2364914474        3.1536574589        9.6710285834
        2.2450291584        2.2059256382        7.0547379925
        2.2478849603        2.0875804998        7.0901691945
        2.2542189453        1.9717792776        7.1333009028
        2.2647481794        1.8600581984        7.1856562096
        2.2799895934        1.7545100037        7.2486822938
        2.3000593608        1.6572774809        7.3230378727
        2.3246832492        1.5700453190        7.4082889645
        2.3533684189        1.4938389297        7.5031022657
        2.3855985044        1.4292156438        7.6057311895
        2.4209269365        1.3766458096        7.7144632144
        2.4589370524        1.3367408160        7.8278039073
        2.4991375961        1.3101005386        7.9444090780
        2.5408995310        1.2968456979        8.0629568807
        2.5834981072        1.2961605588        8.1821521464
        2.6262432906        1.3062087213        8.3008993522
        2.6686226114        1.3245679851        8.4185084523
        2.7103785050        1.3490064317        8.5347485945
        2.7514875435        1.3782086199        8.6496698771
        2.7920629972        1.4120930177        8.7632811091
        2.8322308793        1.4516045599        8.8752688400
        2.8720256080        1.4981513379        8.9849018148
        2.9113303962        1.5530047772        9.0911294058
        2.9498683468        1.6169293504        9.1927632668
        2.9872392580        1.6901199719        9.2886133713
        3.0229890489        1.7723428992        9.3775289158
        3.0566891455        1.8631071016        9.4583926129
        3.0879971690        1.9617498683        9.5301515964
        3.1166771928        2.0674322192        9.5919198979
        3.1425787853        2.1791180112        9.6431068675
        3.1655962152        2.2956113215        9.6834842001
        3.1856351977        2.4156675760        9.7131332471
        3.2025991030        2.5381276863        9.7322865395
        3.2163838419        2.6619971066        9.7411368092
        3.2268632203        2.7864172769        9.7396970511
        3.2338638974        2.9105379110        9.7277628320
        3.2371558558        3.0333610739        9.7049848722
        3.2364914474        3.1536574589        9.6710285834
        2.2450291584        2.2059256382        7.0547379925
        2.2373953841        2.0889332893        7.0926679451
        2.2331360921        1.9743222896        7.1380919419
        2.2331608771        1.8637425874        7.1927938490
        2.2381740601        1.7593875038        7.2583935911
        2.2484601402        1.6634414635        7.3355655615
        2.2639054809        1.5776043553        7.4237674410
        2.2841693003        1.5029570117        7.5215207483
        2.3088454572        1.4401677827        7.6269666920
        2.3375108736        1.3897925529        7.7383255744
        2.3696744129        1.3523714861        7.8540496844
        2.4047212636        1.3282058218        7.9727285479
        2.4419359738        1.3169678351        8.0929725628
        2.4806076080        1.3174548195        8.2134582208
        2.5201487434        1.3277289774        8.3331290178
        2.5601541974        1.3456410135        8.4513806196
        2.6003805400        1.3694888656        8.5680509427
        2.6406880224        1.3984797011        8.6831818515
        2.6809998700        1.4327872784        8.7966921492
        2.7212954729        1.4732320560        8.9081616751
        2.7616065377        1.5208010583        9.0168329504
        2.8019759042        1.5762612511        9.1217731307
        2.8423757333        1.6400084762        9.2220368248
        2.8826288526        1.7121283945        9.3167025889
        2.9223885923        1.7925349048        9.4047845779
        2.9611958398        1.8810478974        9.4851364267
        2.9985784995        1.9773536093        9.5564774282
        3.0341337645        2.0808907549        9.6175785485
        3.0675561626        2.1907618156        9.6675242179
        3.0986201244        2.3057554693        9.7059045343
        3.1271522294        2.4244977421        9.7328275146
        3.1530148717        2.5456667980        9.7487389867
        3.1760902075        2.6681563711        9.7541329849
        3.1962410384        2.7910890226        9.7492803584
        3.2132523308        2.9136636427        9.7340899007
        3.2267986510        3.0349310320        9.7081628700
        3.2364914474        3.1536574589        9.6710285834
        2.2450291584        2.2059256382        7.0547379925
        2.2269710254        2.0911983453        7.0949150871
        2.2121651158        1.9787191260        7.1423916212
        2.2017045793        1.8702303283        7.1991910962
        2.1964893121        1.7679974172        7.2671002727
        2.1970068741        1.6742555257        7.3468337848
        2.2033639663        1.5907937325        7.4377814294
        2.2154308553        1.5188481459        7.5383369797
        2.2329239609        1.4592186767        7.6464940033
        2.2553698615        1.4123843835        7.7603298040
        2.2820437798        1.3784604287        7.8781834204
        2.3120195371        1.3570356868        7.9985962643
        2.3443712224        1.3470796005        8.1202249582
        2.3784207121        1.3470869840        8.2418771007
        2.4138624960        1.3554613549        8.3626475029
        2.4506764574        1.3709585196        8.4820070382
        2.4888961634        1.3929600556        8.5997208240
        2.5284052903        1.4214531529        8.7156141693
        2.5689033761        1.4567719701        8.8293352753
        2.6100433415        1.4992782822        8.9402716976
        2.6516117865        1.5491550957        9.0476581169
        2.6936014695        1.6063830522        9.1507648800
        2.7361216196        1.6708516576        9.2489978833
        2.7792196401        1.7424973578        9.3418140340
        2.8227444787        1.8213721126        9.4285034041
        2.8663328746        1.9075976596        9.5079992867
        2.9094992895        2.0012163217        9.5788742668
        2.9517465132        2.1019943308        9.6395712164
        2.9926299001        2.2092649187        9.6887778643
        3.0317714134        2.3219023537        9.7257670678
        3.0688611830        2.4384726725        9.7505346301
        3.1036677615        2.5575123345        9.7636593524
        3.1360326395        2.6777906072        9.7659378575
        3.1658110810        2.7983923336        9.7579545066
        3.1927677073        2.9185578819        9.7397893512
        3.2165018900        3.0373898743        9.7110186044
        3.2364914474        3.1536574589        9.6710285834
        2.2450291584        2.2059256382        7.0547379925
        2.2166937496        2.0943603317        7.0968966815
        2.1914734725        1.9849421084        7.1461744135
        2.1706319924        1.8794825874        7.2048079782
        2.1552734601        1.7802973395        7.2747504345
        2.1461331465        1.6896963297        7.3567910694
        2.1436205459        1.6096461127        7.4502916631
        2.1479095587        1.5416421636        7.5535149864
        2.1588848748        1.4866354804        7.6642380925
        2.1759622167        1.4448811272        7.7802952151
        2.1979963641        1.4157680612        7.8998566781
        2.2234839165        1.3978430099        8.0214664228
        2.2510484607        1.3891862911        8.1439781589
        2.2799447595        1.3880555606        8.2665031248
        2.3102523451        1.3934809725        8.3883818713
        2.3426168915        1.4054746072        8.5091264273
        2.3777029199        1.4247429203        8.6283003521
        2.4157117220        1.4520997845        8.7453777891
        2.4562534548        1.4879425648        8.8596700496
        2.4986011985        1.5320666899        8.9703795405
        2.5421006120        1.5838431701        9.0767541805
        2.5864432075        1.6425662823        9.1782369962
        2.6316568096        1.7077371603        9.2744945468
        2.6778861557        1.7791672384        9.3652740946
        2.7251576668        1.8569297776        9.4501424652
        2.7732766681        1.9412401418        9.5282401090
        2.8218662000        2.0323033649        9.5981989709
        2.8704565135        2.1301228998        9.6583122840
        2.9185442388        2.2342935847        9.7069299035
        2.9656184642        2.3438785369        9.7429299520
        3.0111998515        2.4574896001        9.7660457862
        3.0549069665        2.5735858179        9.7768590576
        3.0964949533        2.6908319900        9.7764168665
        3.1357956175        2.8082723996        9.7656371028
        3.1725640630        2.9251834012        9.7448157367
        3.2063440497        3.0407191281        9.7135310481
        3.2364914474        3.1536574589        9.6710285834
        2.2450291584        2.2059256382        7.0547379925
        2.2066444115        2.0983965875        7.0986005261
        2.1712275077        1.9929478681        7.1494184899
        2.1401960545        1.8914366597        7.2096111036
        2.1148666308        1.7962104338        7.2812988563
        2.0962726228        1.7096793695        7.3653810665
        2.0852250118        1.6340660974        7.4612224946
        2.0823255520        1.5712164208        7.5669319486
        2.0877209695        1.5222656355        7.6799809468
        2.1007106740        1.4871734116        7.7978538680
        2.1195814260        1.4644440467        7.9185079806
        2.1419794964        1.4514108122        8.0405581301
        2.1657597927        1.4451565045        8.1632115346
        2.1898593072        1.4436740896        8.2860404126
        2.2146527643        1.4466206934        8.4087042179
        2.2415545044        1.4552172088        8.5307279923
        2.2721157449        1.4713751969        8.6514071150
        2.3071755098        1.4966084448        8.7698470753
        2.3465417129        1.5313655011        8.8850869107
        2.3892898929        1.5750693741        8.9962314439
        2.4343719664        1.6266615701        9.1025408573
        2.4811004573        1.6851857064        9.2034679440
        2.5292595114        1.7500607200        9.2986507690
        2.5789021977        1.8210239937        9.3878492311
        2.6300769511        1.8979660461        9.4707950873
        2.6826808446        1.9808536323        9.5469581932
        2.7364607976        2.0697325233        9.6153218581
        2.7910579775        2.1646551004        9.6743375969
        2.8460119242        2.2654470246        9.7221966433
        2.9007484327        2.3714361718        9.7573809441
        2.9546314963        2.4813877076        9.7792332611
        3.0070960878        2.5937684841        9.7881877659
        3.0577641070        2.7071845944        9.7854495656
        3.1064148680        2.8206544399        9.7722515091
        3.1527930173        2.9334897723        9.7491275654
        3.1964024449        3.0448936962        9.7156816045
        3.2364914474        3.1536574589        9.6710285834
        2.2450291584        2.2059256382        7.0547379925
        2.1969021702        2.1032772698        7.1000161978
        2.1515910069        2.0026775753        7.1521058079
        2.1106475389        1.9060056124        7.2135732149
        2.0756059024        1.8156221667        7.2867042793
        2.0478444430        1.7340489839        7.3725364868
        2.0286727771        1.6638090795        7.4704564504
        2.0192559903        1.6071558082        7.5783863635
        2.0201365720        1.5654559840        7.6934051445
        2.0305689575        1.5384053793        7.8125547081
        2.0482233108        1.5236482647        7.9335490592
        2.0697014327        1.5173199571        8.0551393630
        2.0917739517        1.5154753074        8.1770161663
        2.1126937671        1.5157038080        8.2993337048
        2.1328089067        1.5180010803        8.4221267591
        2.1541142086        1.5243932576        8.5449339900
        2.1790500804        1.5376058565        8.6667934282
        2.2092949823        1.5596477063        8.7865253882
        2.2452114866        1.5911289293        8.9030448476
        2.2861011364        1.6315291728        9.0154787629
        2.3309005665        1.6799698995        9.1230691284
        2.3787751747        1.7358167874        9.2250395779
        2.4292960685        1.7987518336        9.3206158314
        2.4822699700        1.8684773283        9.4092045746
        2.5375089580        1.9444862778        9.4905240788
        2.5947512549        2.0261640336        9.5644575471
        2.6537151535        2.1130872517        9.6306254098
        2.7141287168        2.2051569310        9.6879727279
        2.7756444029        2.3023553883        9.7347668043
        2.8377194665        2.4042953438        9.7691589217
        2.8996208923        2.5099622180        9.7900277400
        2.9606045270        2.6179043903        9.7975327707
        3.0201279284        2.7267248779        9.7929335634
        3.0778860704        2.8354441066        9.7777294152
        3.1336029010        2.9434137701        9.7526881642
        3.1867526630        3.0498820532        9.7174542758
        3.2364914474        3.1536574589        9.6710285834
        2.2450291584        2.2059256382        7.0547379925
        2.1875438086        2.1089655667        7.1011350830
        2.1327236879        2.0140573183        7.1542221266
        2.0822324592        1.9230783641        7.2166729138
        2.0378203434        1.8383797613        7.2909287765
        2.0012412927        1.7625798615        7.3781805474
        1.9743731196        1.6984927091        7.4778456720
        1.9590538657        1.6487819969        7.5876342535
        1.9563595953        1.6150901323        7.7041748570
        1.9656324356        1.5969689567        7.8240112091
        1.9839984480        1.5913947106        7.9446004569
        2.0069648267        1.5934923612        8.0648720367
        2.0300019519        1.5983393645        8.1850735499
        2.0503012954        1.6029195400        8.3060073708
        2.0677131217        1.6071016116        8.4281231739
        2.0843698757        1.6131222710        8.5510065761
        2.1033272223        1.6240267705        8.6735075313
        2.1271059641        1.6421353429        8.7942876970
        2.1569300546        1.6684243021        8.9122884966
        2.1928621871        1.7029290224        9.0267517420
        2.2344289869        1.7455365912        9.1368535460
        2.2811401005        1.7963982830        9.2413752287
        2.3325934635        1.8556875419        9.3388117193
        2.3883005380        1.9230740716        9.4279132549
        2.4475713702        1.9975176810        9.5082144130
        2.5096435120        2.0776444473        9.5800284941
        2.5739290670        2.1624001192        9.6437845463
        2.6401092476        2.2514069184        9.6991553222
        2.7079559311        2.3447132578        9.7446822869
        2.7770406210        2.4421681715        9.7782887084
        2.8466164167        2.5429760631        9.7983916227
        2.9157981921        2.6458042634        9.8048131452
        2.9838716475        2.7493027696        9.7987860925
        3.0504221133        2.8525281445        9.7820128928
        3.1151378437        2.9548798866        9.7554665020
        3.1774680121        3.0556464898        9.7188358201
        3.2364914474        3.1536574589        9.6710285834
        2.2450291584        2.2059256382        7.0547379925
        2.1786430641        2.1154179813        7.1019503937
        2.1147796558        2.0269986477        7.1557569698
        2.0551894214        1.9425203306        7.2188946644
        2.0018270962        1.8642945296        7.2939392360
        1.9568244612        1.7949893652        7.3822345912
        1.9226429727        1.7376380897        7.4832339961
        1.9018346500        1.6952481274        7.5944355894
        1.8960979410        1.6697500662        7.7120150254
        1.9050079298        1.6607128449        7.8320194856
        1.9253162362        1.6647445204        7.9516554730
        1.9515505925        1.6762743472        8.0700335739
        1.9778446182        1.6895425495        8.1879520044
        2.0000780427        1.7007544463        8.3068532579
        2.0171600624        1.7091835692        8.4276138824
        2.0308396466        1.7167002144        8.5499190365
        2.0443610202        1.7262408849        8.6725244402
        2.0609130183        1.7403350861        8.7940417282
        2.0827328799        1.7605489978        8.9135206414
        2.1110781017        1.7878611829        9.0303395807
        2.1466360093        1.8232677078        9.1435628089
        2.1897838101        1.8678794980        9.2514340865
        2.2404715984        1.9223775444        9.3516027052
        2.2979798974        1.9863583823        9.4420528900
        2.3609570735        2.0582449553        9.5220460742
        2.4278638999        2.1359543558        9.5922667865
        2.4975376835        2.2178522651        9.6539364683
        2.5694401313        2.3032722438        9.7074917642
        2.6434113471        2.3922478852        9.7518320476
        2.7191754942        2.4847600745        9.7847560876
        2.7960409674        2.5801658522        9.8043000193
        2.8730317593        2.6772488163        9.8099725107
        2.9492740176        2.7747431243        9.8029439674
        3.0242298468        2.8717753083        9.7850559110
        3.0975368199        2.9678009531        9.7574379198
        3.1686189856        3.0621434031        9.7198158872
        3.2364914474        3.1536574589        9.6710285834
        2.2450291584        2.2059256382        7.0547379925
        2.1702699799        2.1225846819        7.1024571723
        2.0979058479        2.0413992990        7.1567035449
        2.0297470322        1.9641746300        7.2202290382
        1.9679289395        1.8931463522        7.2957103573
        1.9149275032        1.8309566767        7.3846291422
        1.8737319821        1.7807289125        7.4864817430
        1.8475490996        1.7456756401        7.5985931477
        1.8386915955        1.7279699753        7.7167547078
        1.8470670443        1.7273398439        7.8365882296
        1.8692666386        1.7403529549        7.9550786897
        1.8990967699        1.7611245627        8.0714748691
        1.9295328645        1.7832944020        8.1870256312
        1.9551313261        1.8022434634        8.3037154134
        1.9736281683        1.8163453935        8.4228146323
        1.9860096593        1.8267176558        8.5441591433
        1.9953239909        1.8359330393        8.6665027444
        2.0051768455        1.8467126091        8.7884679363
        2.0187735652        1.8613662220        8.9091996514
        2.0387123086        1.8819654330        9.0281512731
        2.0670994267        1.9106139200        9.1442410533
        2.1054542144        1.9492196268        9.2552316388
        2.1542943285        1.9987735073        9.3580653851
        2.2127873659        2.0587257324        9.4500971415
        2.2789366597        2.1270840002        9.5303474807
        2.3503623056        2.2013067303        9.5997577036
        2.4252191954        2.2794121450        9.6601348908
        2.5026416983        2.3605420118        9.7124973216
        2.5824670597        2.4446614583        9.7560428316
        2.6645538671        2.5317579629        9.7885228401
        2.7482894542        2.6212428935        9.8077332113
        2.8326432684        2.7119910636        9.8129730262
        2.9166035985        2.8028473858        9.8053627960
        2.9995082151        2.8930375256        9.7868253835
        3.0809326617        2.9820788662        9.7585847292
        3.1602727460        3.0693236286        9.7203871313
        3.2364914474        3.1536574589        9.6710285834
        2.2450291584        2.2059256382        7.0547379925
        2.1624902831        2.1304099160        7.1026522839
        2.0822404972        2.0571440912        7.1570586210
        2.0061214050        1.9878637373        7.2206730520
        1.9364130633        1.9246890170        7.2962282024
        1.8758664935        1.8701428273        7.3853153474
        1.8278716121        1.8272712147        7.4874868242
        1.7961243875        1.7992957189        7.5999738828
        1.7834270146        1.7885165616        7.7183223587
        1.7900346836        1.7948938183        7.8378675637
        1.8125841279        1.8152362840        7.9554262639
        1.8445130978        1.8437330986        8.0703021608
        1.8780139035        1.8737505793        8.1840063882
        1.9065811265        1.8999886728        8.2988742558
        1.9268518736        1.9198817964        8.4164783958
        1.9389532644        1.9336836134        8.5368370934
        1.9455448621        1.9435428121        8.6587841713
        1.9504330585        1.9523913967        8.7809764556
        1.9575834261        1.9632936640        8.9025715562
        1.9707340502        1.9792874728        9.0229751258
        1.9932203376        2.0032688030        9.1409338089
        2.0275592210        2.0375287408        9.2538997514
        2.0747900084        2.0830421475        9.3584429015
        2.1340489427        2.1390350336        9.4516246064
        2.2028744648        2.2032964991        9.5323713534
        2.2782451244        2.2731746059        9.6017516116
        2.3577676304        2.3466542944        9.6618301443
        2.4402808269        2.4228357744        9.7138705340
        2.5255738810        2.5015942100        9.7571978583
        2.6135779682        2.5828193432        9.7895587809
        2.7037291109        2.6658919856        9.8086767505
        2.7949507793        2.7497578381        9.8137915024
        2.8861155023        2.8333954272        9.8060161630
        2.9764463381        2.9161512944        9.7873018618
        3.0654510567        2.9976054080        9.7588966508
        3.1524926287        3.0771328121        9.7205452907
        3.2364914474        3.1536574589        9.6710285834
        2.2450291584        2.2059256382        7.0547379925
        2.1553647991        2.1388324842        7.1025344016
        2.0679116436        2.0741059967        7.1568223626
        1.9845137479        2.0133914319        7.2202304003
        1.9075502109        1.9586550745        7.2954932769
        1.8399518871        1.9122057154        7.3842742870
        1.7853302220        1.8768361121        7.4861990571
        1.7476242282        1.8555539618        7.5985137607
        1.7299031858        1.8506135038        7.7167074659
        1.7326991286        1.8621902615        7.8360175188
        1.7528624615        1.8875204014        7.9531680619
        1.7838558501        1.9212093874        8.0674131943
        1.8175965100        1.9567391165        8.1802789472
        1.8469950619        1.9884615817        8.2941880515
        1.8679334872        2.0131065268        8.4108652405
        1.8798567264        2.0302125444        8.5305119083
        1.8850573056        2.0415839399        8.6521141222
        1.8874159982        2.0503490528        8.7743813791
        1.8913703924        2.0601566635        8.8963897515
        1.9013458439        2.0746485627        9.0173610075
        1.9213502522        2.0970085998        9.1358469953
        1.9543763784        2.1294101453        9.2491940646
        2.0016639153        2.1724893853        9.3539997516
        2.0622992076        2.2252082918        9.4474450321
        2.1336127333        2.2853522862        9.5285698859
        2.2123281887        2.3504889964        9.5984644555
        2.2958405920        2.4188512795        9.6591093658
        2.3828651175        2.4896352096        9.7116413072
        2.4731492786        2.5626288476        9.7553049148
        2.5666212047        2.6375695581        9.7878616790
        2.6627003645        2.7137700925        9.8071224046
        2.7602504111        2.7902510262        9.8124174793
        2.8580486539        2.8661476526        9.8048952612
        2.9552216427        2.9409392995        9.7864799743
        3.0512095526        3.0142631446        9.7583710757
        3.1453376713        3.0855118168        9.7202892352
        3.2364914474        3.1536574589        9.6710285834
        2.2450291584        2.2059256382        7.0547379925
        2.1489489103        2.1477862678        7.1021039842
        2.0550357245        2.0921473662        7.1559981144
        1.9651079886        2.0405449095        7.2189113896
        1.8815931379        1.9947592901        7.2935222872
        1.8074960118        1.9568061852        7.3815225302
        1.7464523623        1.9290730876        7.4826275795
        1.7023673691        1.9141459087        7.5942148399
        1.6783091743        1.9140369356        7.7119202183
        1.6749621800        1.9290437752        7.8310898188
        1.6895163148        1.9569070570        7.9484470727
        1.7158461287        1.9929087802        8.0630998693
        1.7461477652        2.0310452926        8.1763342658
        1.7733240696        2.0657785486        8.2903704991
        1.7929777167        2.0935612603        8.4068952458
        1.8041844633        2.1135300548        8.5262561204
        1.8090008478        2.1272714462        8.6476487717
        1.8113149188        2.1380032083        8.7698728157
        1.8157438490        2.1496192846        8.8918730943
        1.8268787633        2.1658626900        9.0125937220
        1.8487224062        2.1896699148        9.1303774772
        1.8840745922        2.2226786121        9.2426309838
        1.9339171649        2.2649906890        9.3463086041
        1.9971754911        2.3153440686        9.4390595236
        2.0712001075        2.3717173150        9.5202250296
        2.1528766013        2.4321296327        9.5908511990
        2.2397882182        2.4952313351        9.6525736517
        2.3307625345        2.5603901705        9.7061125925
        2.4255538045        2.6273194023        9.7504723708
        2.5240266935        2.6956038359        9.7834489008
        2.6255180094        2.7645053587        9.8030659429
        2.7288150823        2.8331491086        9.8088530817
        2.8326234688        2.9008475048        9.8020092188
        2.9359981020        2.9672122213        9.7843686628
        3.0383165924        3.0319263832        9.7570131389
        3.1388621697        3.0943971624        9.7196209751
        3.2364914474        3.1536574589        9.6710285834
        2.2450291584        2.2059256382        7.0547379925
        2.1432920683        2.1572008038        7.1013632508
        2.0437162724        2.1111212902        7.1545921397
        1.9480684143        2.0690969964        7.2167324502
        1.8587736124        2.0327005082        7.2903480369
        1.7788117156        2.0036045084        7.3771131498
        1.7116658897        1.9836908532        7.4768425229
        1.6609585553        1.9749714952        7.5871441725
        1.6295065891        1.9790446588        7.7039794091