VARIABLES = X, Y, Z
ZONE I=       37  J=       73  F=POINT
        1.8188656562        1.7162086949        1.0456787443
        1.8783860130        1.6501733768        1.1278854752
        1.9325237831        1.5813428809        1.2124491739
        1.9855170516        1.5134296677        1.2996330920
        2.0431195945        1.4526623102        1.3888384743
        2.1097148119        1.4049275183        1.4787257996
        2.1864972452        1.3732772077        1.5677741650
        2.2715497695        1.3570839819        1.6549039994
        2.3614550299        1.3530966172        1.7397802673
        2.4532429270        1.3575611442        1.8226408750
        2.5454956554        1.3681050123        1.9037995634
        2.6381873671        1.3844455645        1.9831560143
        2.7317212496        1.4078368023        2.0600026628
        2.8260278194        1.4399008958        2.1331984712
        2.9203179533        1.4816685904        2.2015459420
        3.0134622362        1.5332818623        2.2641130371
        3.1045150812        1.5942624299        2.3203293206
        3.1929208844        1.6639322377        2.3698689303
        3.2783179122        1.7416409402        2.4124701463
        3.3602174639        1.8267484778        2.4478425789
        3.4378827237        1.9185373149        2.4757002948
        3.5104783623        2.0162224372        2.4958381995
        3.5772830098        2.1190552144        2.5081401625
        3.6377176623        2.2263806436        2.5124875505
        3.6911634467        2.3375427174        2.5086505462
        3.7367936772        2.4516953137        2.4962889190
        3.7736728940        2.5676977217        2.4751183101
        3.8011364791        2.6842268268        2.4451626803
        3.8191700560        2.8000539962        2.4069208295
        3.8284358887        2.9142760990        2.3613055197
        3.8298366002        3.0263033139        2.3093567887
        3.8238805355        3.1355913970        2.2518885559
        3.8103067100        3.2413146991        2.1892854017
        3.7882657944        3.3422375491        2.1215782222
        3.7569509220        3.4369044036        2.0487499731
        3.7162412389        3.5240407585        1.9710758645
        3.6669189008        3.6029111702        1.8892847749
        1.8188656562        1.7162086949        1.0456787443
        1.8747459885        1.6571941575        1.1350956980
        1.9246130262        1.5949960862        1.2266345497
        1.9720778562        1.5326208111        1.3206552498
        2.0228806907        1.4759747443        1.4166021305
        2.0819736352        1.4310953683        1.5131000779
        2.1513621922        1.4015084177        1.6085404707
        2.2297607085        1.3871060514        1.7017565933
        2.3139566165        1.3849705049        1.7923684900
        2.4008007719        1.3914239870        1.8806168135
        2.4885623218        1.4039949162        1.9668369359
        2.5770270403        1.4222617550        2.0509312639
        2.6666383161        1.4473858493        2.1321573628
        2.7575172578        1.4809481350        2.2093114763
        2.8490540468        1.5239564600        2.2811281693
        2.9401711279        1.5765358526        2.3466121965
        3.0298404602        1.6382203596        2.4051206158
        3.1173648078        1.7083946515        2.4562238609
        3.2022676464        1.7864951840        2.4995279159
        3.2840199003        1.8719198332        2.5346282999
        3.3619267338        1.9638760218        2.5612173773
        3.4352678089        2.0613988937        2.5792125043
        3.5034905159        2.1635466562        2.5887439063
        3.5661935351        2.2695728279        2.5899622816
        3.6228650461        2.3788835517        2.5827970724
        3.6726303691        2.4907953479        2.5668727770
        3.7143241128        2.6043126947        2.5416990897
        3.7469458019        2.7181498306        2.5070497884
        3.7701953478        2.8310143075        2.4632850939
        3.7846430251        2.9419308364        2.4113808958
        3.7913228119        3.0503257748        2.3526125356
        3.7909829347        3.1557752936        2.2880761643
        3.7835248008        3.2575984709        2.2183495309
        3.7680564602        3.3546216779        2.1435080252
        3.7435449583        3.4453307549        2.0634770700
        3.7096120528        3.5283452971        1.9784801279
        3.6669189008        3.6029111702        1.8892847749
        1.8188656562        1.7162086949        1.0456787443
        1.8707493328        1.6646936653        1.1416230666
        1.9161541596        1.6096893119        1.2394314094
        1.9579679011        1.5534410694        1.3395677525
        2.0017949626        1.5014470155        1.4415503029
        2.0530886366        1.4598496834        1.5440087677
        2.1146893267        1.4326887065        1.6452706606
        2.1860292887        1.4204842501        1.7440696831
        2.2641822053        1.4207601689        1.8399355078
        2.3458413323        1.4299518073        1.9330592236
        2.4289169573        1.4454287582        2.0237704872
        2.5129316683        1.4665051545        2.1119892199
        2.5983176249        1.4941174681        2.1969899615
        2.6853916834        1.5297115445        2.2775766489
        2.7737855497        1.5742274978        2.3524874258
        2.8625681442        1.6277653183        2.4207256628
        2.9507213067        1.6898910183        2.4816171455
        3.0374620923        1.7601062142        2.5346299734
        3.1221910346        1.8380325235        2.5791765071
        3.2042539579        1.9232359603        2.6146080699
        3.2828523700        2.0149678511        2.6404274768
        3.3572247510        2.1121378018        2.6565356841
        3.4268914585        2.2135735177        2.6632704558
        3.4916488747        2.3183302750        2.6611434446
        3.5512298811        2.4257598842        2.6504285962
        3.6049041434        2.5352733213        2.6309047882
        3.6514262338        2.6460199088        2.6019789060
        3.6894929610        2.7567932636        2.5631522235
        3.7184291034        2.8662775410        2.5145315458
        3.7385651299        2.9734374894        2.4570264175
        3.7509496588        3.0777062180        2.3920730011
        3.7565412011        3.1787748052        2.3210505805
        3.7554526591        3.2761219657        2.2447756769
        3.7468212635        3.3686639953        2.1634098526
        3.7294266987        3.4548482378        2.0768305882
        3.7026232523        3.5331901840        1.9851931880
        3.6669189008        3.6029111702        1.8892847749
        1.8188656562        1.7162086949        1.0456787443
        1.8664231663        1.6726103510        1.1474211802
        1.9072090107        1.6253010381        1.2507526961
        1.9433100761        1.5757332464        1.3562433564
        1.9800761837        1.5289303408        1.4635118966
        2.0233812707        1.4911015999        1.5712299495
        2.0769045097        1.4668299766        1.6776803508
        2.1408674087        1.4573430261        1.7814785135
        2.2127083096        1.4606732092        1.8820147309
        2.2889929299        1.4733663913        1.9793836068
        2.3672410281        1.4925544400        2.0738971294
        2.4466474257        1.5171796116        2.1655236774
        2.5275775556        1.5478794413        2.2536076219
        2.6105236071        1.5859514689        2.3370068752
        2.6953765722        1.6322907164        2.4144940423
        2.7814007438        1.6869808346        2.4851041250
        2.8676625186        1.7495876916        2.5481883688
        2.9533856243        1.8196794434        2.6031863279
        3.0379328361        1.8970483985        2.6493620028
        3.1205589537        1.9814892722        2.6857818298
        3.2003049924        2.0724202825        2.7116115679
        3.2762208041        2.1687510244        2.7265282010
        3.3477196773        2.2691416297        2.7309073937
        3.4146750030        2.3724248322        2.7255808234
        3.4770726477        2.4778163206        2.7112774558
        3.5344613951        2.5847398328        2.6881291013
        3.5856985127        2.6924503504        2.6556164932
        3.6293033817        2.7998265146        2.6130365405
        3.6642299521        2.9055513727        2.5601894563
        3.6904690496        3.0085406460        2.4978023601
        3.7089582577        3.1082290480        2.4273738548
        3.7207948535        3.2044172807        2.3505328751
        3.7263135751        3.2967537171        2.2683579661
        3.7247394036        3.3842680476        2.1811348942
        3.7147137958        3.4653904135        2.0887106260
        3.6953302185        3.5385398329        1.9911640592
        3.6669189008        3.6029111702        1.8892847749
        1.8188656562        1.7162086949        1.0456787443
        1.8617949688        1.6808785648        1.1524493783
        1.8978348828        1.6416988255        1.2605239515
        1.9282164965        1.5993211568        1.3705754881
        1.9579242836        1.5582472259        1.4823442943
        1.9931596536        1.5247128308        1.5945764938
        2.0384192276        1.5038421508        1.7055278271
        2.0947624686        1.4975945430        1.8136812015
        2.1600628118        1.5045189906        1.9182529931
        2.2307990956        1.5212311582        2.0192199433
        2.3040944523        1.5445500492        2.1168942187
        2.3787831996        1.5729926370        2.2113409124
        2.4551336356        1.6069197711        2.3020110459
        2.5337950283        1.6475815004        2.3878018611
        2.6149014243        1.6959471364        2.4674568997
        2.6978921534        1.7521373594        2.5399851165
        2.7819119525        1.8156574409        2.6047815888
        2.8662325292        1.8859943289        2.6613784720
        2.9502810783        1.9629612470        2.7090642830
        3.0333487381        2.0465163015        2.7467394368
        3.1143937182        2.1362947296        2.7732069315
        3.1922409962        2.2313316719        2.7877415758
        3.2660466187        2.3302433066        2.7905145240
        3.3355733529        2.4317008850        2.7825017634
        3.4009426788        2.5347727148        2.7648676098
        3.4620016169        2.6388462887        2.7382258400
        3.5178443765        2.7432394133        2.7023163686
        3.5669695185        2.8469001767        2.6563625159
        3.6080414031        2.9485142360        2.5998759706
        3.6406806259        3.0469523126        2.5333276697
        3.6656133596        3.1416463930        2.4581825711
        3.6839853517        3.2325012877        2.3762623222
        3.6963281809        3.3193398479        2.2889053376
        3.7019908870        3.4013223657        2.1965482069
        3.6995271913        3.4768821341        2.0990280786
        3.6877906577        3.5443546793        1.9963474187
        3.6669189008        3.6029111702        1.8892847749
        1.8188656562        1.7162086949        1.0456787443
        1.8568924541        1.6894291793        1.1566729558
        1.8880836597        1.6587401488        1.2686836286
        1.9127848271        1.6240083499        1.3824788332
        1.9355162597        1.5891841021        1.4979348840
        1.9627017183        1.5604799150        1.6139001101
        1.9996044245        1.5435158318        1.7286232477
        2.0481408149        1.5409457703        1.8404550655
        2.1066756291        1.5517934353        1.9484304507
        2.1716482601        1.5726931072        2.0524202967
        2.2398037802        1.6001128807        2.1527830065
        2.3096199890        1.6321620818        2.2497370448
        2.3812797861        1.6690274763        2.3428521235
        2.4556073257        1.7120812697        2.4309860057
        2.5329743322        1.7625341491        2.5126935486
        2.6129409530        1.8206217318        2.5867966484
        2.6946420057        1.8857269876        2.6526798638
        2.7773341358        1.9570749672        2.7100840090
        2.8605343670        2.0342828266        2.7585742468
        2.9436956882        2.1173158084        2.7971494465
        3.0258564518        2.2059875510        2.8243852006
        3.1057154549        2.2995286703        2.8390895727
        3.1821367274        2.3966309519        2.8410090131
        3.2546209348        2.4959069905        2.8310170774
        3.3232518085        2.5963275909        2.8105707216
        3.3880864282        2.6972450642        2.7807808605
        3.4484977016        2.7980196439        2.7417749518
        3.5030902609        2.8976517363        2.6928442458
        3.5503553531        2.9948233504        2.6332825128
        3.5895752541        3.0883587022        2.5632838946
        3.6212084121        3.1776831907        2.4842078286
        3.6463627192        3.2628001090        2.3980037144
        3.6657170654        3.3437060880        2.3062451567
        3.6787559782        3.4197013770        2.2095300645
        3.6839899663        3.4892399419        2.1077052242
        3.6800640648        3.5505914209        2.0007039269
        3.6669189008        3.6029111702        1.8892847749
        1.8188656562        1.7162086949        1.0456787443
        1.8517435217        1.6981902784        1.1600633210
        1.8780012825        1.6762735425        1.2751832069
        1.8970953851        1.6495778962        1.3918895001
        1.9129985611        1.6214877094        1.5102018794
        1.9322419252        1.5981301542        1.6290936834
        1.9607737805        1.5855340763        1.7468318004
        2.0013544758        1.5869634272        1.8616538536
        2.0528808471        1.6018575345        1.9724318499
        2.1118055826        1.6268509162        2.0789633935
        2.1745321681        1.6580917918        2.1817029802
        2.2392086082        1.6933637735        2.2810651836
        2.3059730869        1.7328021764        2.3767270661
        2.3758828292        1.7780383218        2.4674032934
        2.4495880385        1.8306353772        2.5512731369
        2.5267432947        1.8909879602        2.6267721291
        2.6063637888        1.9583105392        2.6931671519
        2.6875455519        2.0314390986        2.7504706733
        2.7698038248        2.1096283757        2.7987544364
        2.8527849744        2.1927025891        2.8374184272
        2.9357540305        2.2805710520        2.8650480309
        3.0174569087        2.3726591067        2.8800512762
        3.0965557565        2.4677970115        2.8816329024
        3.1722421482        2.5646254956        2.8703446235
        3.2444177479        2.6620899763        2.8477367383
        3.3132104071        2.7595453266        2.8153288471
        3.3782267319        2.8564007913        2.7736716270
        3.4382411166        2.9517010500        2.7222267694
        3.4916814077        3.0441170527        2.6601594751
        3.5375622438        3.1324245596        2.5874128228
        3.5760636933        3.2160415907        2.5052047134
        3.6081888786        3.2950654200        2.4155534299
        3.6347029196        3.3696602404        2.3202269299
        3.6552149685        3.4392666563        2.2199774899
        3.6682263410        3.5023726118        2.1146763048
        3.6722111880        3.5572032963        2.0042005066
        3.6669189008        3.6029111702        1.8892847749
        1.8188656562        1.7162086949        1.0456787443
        1.8463762869        1.7070879049        1.1625980986
        1.8676276822        1.6941401157        1.2799871136
        1.8812093922        1.6757935585        1.3987647307
        1.8904818368        1.6548655856        1.5190942661
        1.9019629096        1.6373269940        1.6400915815
        1.9221773156        1.6294995836        1.7600714213
        1.9546885007        1.6351517363        1.8771922768
        1.9989584162        1.6540986420        1.9901948019
        2.0515195462        1.6830237246        2.0988284025
        2.1084876100        1.7178673221        2.2036594375
        2.1677098611        1.7562055823        2.3052990741
        2.2293091427        1.7981939290        2.4035056900
        2.2946321684        1.8457300020        2.4967864111
        2.3646797612        1.9006944915        2.5828413221
        2.4392360580        1.9636025071        2.6595990888
        2.5171420933        2.0334812178        2.7261174318
        2.5971895762        2.1087712603        2.7826701563
        2.6787289941        2.1883455335        2.8299348960
        2.7615161563        2.2718377495        2.8679017622
        2.8450935950        2.3591838527        2.8953760384
        2.9284078684        2.4499477850        2.9105097878
        3.0100745216        2.5430849456        2.9119844727
        3.0890345449        2.6372980520        2.8999248169
        3.1649428404        2.7315645351        2.8758086314
        3.2378704999        2.8252900281        2.8414244759
        3.3075644919        2.9179536174        2.7976930533
        3.3729696373        3.0086432110        2.7442825034
        3.4325279505        3.0960137882        2.6803062311
        3.4850694839        3.1787952904        2.6055119843
        3.5305205741        3.2564044393        2.5209768176
        3.5697380689        3.3290308977        2.4287439716
        3.6035117792        3.3969949167        2.3307257334
        3.6315480031        3.4598684305        2.2278058143
        3.6523607834        3.5161818183        2.1198880802
        3.6642935010        3.5641404003        2.0068105802
        3.6669189008        3.6029111702        1.8892847749
        1.8188656562        1.7162086949        1.0456787443
        1.8408191869        1.7160468579        1.1642611811
        1.8569972250        1.7121754573        1.2830724650
        1.8651686602        1.7024024659        1.4030821551
        1.8680385964        1.6889902692        1.5245908111
        1.8719922124        1.6776810417        1.6468681923
        1.8840024821        1.6749630087        1.7683078267
        1.9083761920        1.6850065188        1.8870297261
        1.9451782541        1.7080017936        2.0016709644
        1.9911174056        1.7407995801        2.1119246046
        2.0421036317        1.7793048393        2.2184215345
        2.0957043341        1.8210019103        2.3219096794
        2.1520016739        1.8660433800        2.4221991713
        2.2126169665        1.9164382987        2.5176168822
        2.2789386763        1.9741913597        2.6054523224
        2.3509521982        2.0398229033        2.6831847532
        2.4273649066        2.1121971118        2.7496573931
        2.5066160305        2.1894913315        2.8053300131
        2.5877611661        2.2703405868        2.8513913366
        2.6705289963        2.3542548670        2.8883836797
        2.7546871106        2.4411621975        2.9153963359
        2.8394496398        2.5306751859        2.9304670853
        2.9235225818        2.6218002818        2.9318911559
        3.0057065126        2.7132857803        2.9194148117
        3.0854216964        2.8041726901        2.8943770041
        3.1626027365        2.8939570657        2.8587025507
        3.2370381511        2.9822052450        2.8135695404
        3.3078029259        3.0680445929        2.7588216252
        3.3733934822        3.1501105609        2.6935680561
        3.4325314682        3.2270978464        2.6174307503
        3.4849344740        3.2984380359        2.5313765958
        3.5312951562        3.3644156947        2.4374471137
        3.5723732452        3.4254904136        2.3376451166
        3.6079347805        3.4813472454        2.2329501237
        3.6365171872        3.5305629023        2.1233003279
        3.6563726852        3.5713500357        2.0085142625
        3.6669189008        3.6029111702        1.8892847749
        1.8188656562        1.7162086949        1.0456787443
        1.8351011544        1.7249915259        1.1650427324
        1.8461396938        1.7302119168        1.2844286510
        1.8489968779        1.7291392270        1.4048386160
        1.8457039938        1.7235064614        1.5266981689
        1.8424035065        1.7187633731        1.6494351780
        1.8463789460        1.7214441713        1.7715495788
        1.8626095010        1.7360340149        1.8911620558
        1.8918126805        1.7631286552        2.0068210790
        1.9310104142        1.7999007606        2.1181164594
        1.9760311494        1.8424055915        2.2256342195
        2.0241821149        1.8881151940        2.3301458306
        2.0754076899        1.9370688151        2.4314892554
        2.1314667387        1.9911236776        2.5279383995
        2.1940634015        2.0521347477        2.6166211275
        2.2634280698        2.1204983542        2.6948146957
        2.3382522277        2.1949962815        2.7612472032
        2.4167170663        2.2737699698        2.8164454675
        2.4975811353        2.3554495548        2.8618341091
        2.5804552403        2.4395387288        2.8982367924
        2.6652310672        2.5259311894        2.9249149193
        2.7513606526        2.6141817849        2.9398859665
        2.8377005669        2.7032541307        2.9412726174
        2.9230055250        2.7919122385        2.9286245275
        3.0065113788        2.8792817616        2.9031830872
        3.0879864185        2.9649748385        2.8669122908
        3.1671842736        3.0486453506        2.8211069961
        3.2432559737        3.1294439443        2.7657072412
        3.3147638178        3.2059825195        2.6998377955
        3.3803810989        3.2769413369        2.6230680244
        3.4396681119        3.3417945855        2.5363050987
        3.4931526967        3.4009278467        2.4415759771
        3.5415197665        3.4549176354        2.3409193628
        3.5845540149        3.5035357112        2.2353664708
        3.6208180826        3.5454057129        2.1248862605
        3.6485101274        3.5787770986        2.0092985091
        3.6669189008        3.6029111702        1.8892847749
        1.8188656562        1.7162086949        1.0456787443
        1.8292518477        1.7338467420        1.1649391489
        1.8350817903        1.7480812019        1.2840567943
        1.8327025425        1.7557312756        1.4040486252
        1.8234797066        1.7580403441        1.5254481759
        1.8132216204        1.7601193010        1.6478377916
        1.8093849694        1.7684455532        1.7698442067
        1.8175411128        1.7877460797        1.8896221434
        1.8391129454        1.8190557783        2.0056374740
        1.8716021746        1.8600069270        2.1173115668
        1.9109225359        1.9069516957        2.2250498356
        1.9541573934        1.9573802460        2.3295142178
        2.0009696368        2.0110729239        2.4305562279
        2.0530069627        2.0694732045        2.5265791486
        2.1120864879        2.1340542307        2.6148909757
        2.1786482845        2.2050203489        2.6929102545
        2.2515083610        2.2811982290        2.7594018653
        2.3288021640        2.3609272590        2.8148187358
        2.4091402113        2.4430322047        2.8604546980
        2.4920306493        2.5270801660        2.8970240008
        2.5774032239        2.6128747542        2.9237543356
        2.6648541546        2.6998125306        2.9387058386
        2.7533626795        2.7867524689        2.9400746930
        2.8416767565        2.8724768089        2.9274600174
        2.9288970077        2.9562272153        2.9021025966
        3.0146296833        3.0377424080        2.8659310477
        3.0985492854        3.1167385993        2.8202073910
        3.1798352103        3.1923571749        2.7648678732
        3.2571111959        3.2631838687        2.6990589189
        3.3290444258        3.3279180101        2.6223713557
        3.3950857766        3.3861148304        2.5357117836
        3.4556074261        3.4382677553        2.4410863719
        3.5111851635        3.4850409959        2.3405150669
        3.5615826129        3.5262602424        2.2350327637
        3.6053838536        3.5605954967        2.1246328339
        3.6407664346        3.5863644939        2.0091572168
        3.6669189008        3.6029111702        1.8892847749
        1.8188656562        1.7162086949        1.0456787443
        1.8233019186        1.7425386400        1.1639529850
        1.8238490966        1.7656171990        1.2819691260
        1.8162834529        1.7819051418        1.4007425479
        1.8013407110        1.7922103595        1.5208944738
        1.7844308800        1.8012822042        1.6421503400
        1.7730557622        1.8154621514        1.7632745273
        1.7732854129        1.8396521592        1.8824830123
        1.7872792152        1.8753320285        1.9981686010
        1.8131779807        1.9206690773        2.1095358957
        1.8471661032        1.9723877806        2.2167008515
        1.8861703019        2.0279901501        2.3201079104
        1.9294401980        2.0868859366        2.4196152152
        1.9782315897        2.1499479273        2.5139163766
        2.0342006369        2.2181676850        2.6007939345
        2.0978881928        2.2915820691        2.6780959548
        2.1683453312        2.3691917514        2.7447388849
        2.2439104934        2.4496775594        2.8009605767
        2.3232793639        2.5321256303        2.8475948219
        2.4059560983        2.6161310976        2.8849125362
        2.4918593853        2.7013216747        2.9119512394
        2.5806130594        2.7868787417        2.9268982898
        2.6712335578        2.8715697551        2.9282599223
        2.7624510817        2.9542534201        2.9159030499
        2.8532663414        3.0343296734        2.8911376670
        2.9431486409        3.1116501436        2.8557688341
        3.0316800364        3.1859385252        2.8108771996
        3.1180366180        3.2562829162        2.7563031557
        3.2008932312        3.3212493354        2.6912273193
        3.2789372966        3.3796049747        2.6153369676
        3.3515487425        3.4310313236        2.5295947593
        3.4189565983        3.4761318815        2.4359776467
        3.4816025841        3.5156212217        2.3364320211
        3.5391945721        3.5493427170        2.2319492699
        3.5903319458        3.5760138162        2.1225409293
        3.6332009673        3.5940535796        2.0080912770
        3.6669189008        3.6029111702        1.8892847749
        1.8188656562        1.7162086949        1.0456787443
        1.8172832963        1.7509954932        1.1620928480
        1.8124683953        1.7826588957        1.2781883217
        1.7997325591        1.8073932698        1.3949646476
        1.7792446391        1.8256388571        1.5131086577
        1.7559864470        1.8417876666        1.6324707583
        1.7373951085        1.8619919819        1.7519536124
        1.7299286372        1.8912616820        1.8698562989
        1.7364630917        1.9314825998        1.9845223570
        1.7558807799        1.9813530420        2.0949365123
        1.7847973443        2.0379736545        2.2008850578
        1.8200801564        2.0988431391        2.3025453379
        1.8605081568        2.1629712732        2.3997756676
        1.9067440294        2.2306514803        2.4916320967
        1.9600509916        2.3024356431        2.5765019244
        2.0209473573        2.3782742898        2.6527755700
        2.0887743465        2.4574088383        2.7195343415
        2.1622614888        2.5388576037        2.7766894947
        2.2403873681        2.6218834678        2.8244386122
        2.3227469007        2.7059957880        2.8624800589
        2.4092101617        2.7905812332        2.8896656609
        2.4993182715        2.8746343717        2.9044471818
        2.5920326641        2.9569294229        2.9058210327
        2.6860443969        3.0364959101        2.8940296493
        2.7802903825        3.1129161718        2.8704271797
        2.8741453427        3.1861003118        2.8365696901
        2.9671098496        3.2556986693        2.7932246971
        3.0583405426        3.3207057654        2.7400815012
        3.1465514295        3.3796953626        2.6763908521
        3.2304631956        3.4315670466        2.6020104786
        3.3094116432        3.4761727480        2.5180015983
        3.3834943633        3.5142167014        2.4262931317
        3.4530020619        3.5464179507        2.3287033896
        3.5175596356        3.5726019854        2.2261387024
        3.5757760607        3.5915394772        2.1186253950
        3.6258713947        3.6017846350        2.0061085791
        3.6669189008        3.6029111702        1.8892847749
        1.8188656562        1.7162086949        1.0456787443
        1.8112294633        1.7591485130        1.1593732686
        1.8009702018        1.7990532602        1.2727468474
        1.7830448486        1.8319409638        1.3867711474
        1.7571432891        1.8579640267        1.5021762310
        1.7278282337        1.8811880420        1.6189144183
        1.7023902536        1.9075489071        1.7360176062
        1.6875510358        1.9420972171        1.8518835026
        1.6868171329        1.9870448330        1.9648445008