VARIABLES = X, Y, Z
ZONE I=       37  J=       73  F=POINT
        2.1506737687        2.0969536679        6.1329665555
        2.1667601410        1.9795158144        6.1715915937
        2.1881757803        1.8665273006        6.2201374701
        2.2152435757        1.7600437488        6.2796719540
        2.2478650740        1.6620850169        6.3504591902
        2.2855376149        1.5741871085        6.4317968107
        2.3275224635        1.4972210219        6.5222505751
        2.3730569745        1.4315749976        6.6201022665
        2.4214889923        1.3775394522        6.7237366277
        2.4722741229        1.3355786914        6.8317890831
        2.5248732597        1.3062451726        6.9430729386
        2.5786531748        1.2897537726        7.0564529551
        2.6328841057        1.2855042373        7.1708305825
        2.6868539250        1.2919221435        7.2852737071
        2.7400318117        1.3068128937        7.3991765341
        2.7921748508        1.3281018546        7.5122912142
        2.8433036645        1.3545825991        7.6245616051
        2.8935535030        1.3862809952        7.7358357361
        2.9429807758        1.4242685262        7.8456220985
        2.9914258792        1.4700678238        7.9530224903
        3.0384933443        1.5249878534        8.0568536491
        3.0836407569        1.5897006353        8.1558568819
        3.1263138808        1.6641752150        8.2488686143
        3.1660556620        1.7478688651        8.3348893397
        3.2025480625        1.8399766986        8.4130786344
        3.2355906417        1.9395913315        8.4827450886
        3.2650491091        2.0457494711        8.5433688991
        3.2908082751        2.1574344829        8.5946320016
        3.3127452479        2.2736060322        8.6363990473
        3.3307188516        2.3932645251        8.6686218080
        3.3445640214        2.5154996340        8.6912031944
        3.3540866391        2.6394705366        8.7038990339
        3.3590657440        2.7643163624        8.7063202616
        3.3592751378        2.8890516155        8.6980381046
        3.3545297572        3.0125176291        8.6787371144
        3.3447469339        3.1334283609        8.6483449176
        3.3299980011        3.2504940251        8.6070947765
        2.1506737687        2.0969536679        6.1329665555
        2.1564083259        1.9801974594        6.1748728564
        2.1675195215        1.8678558599        6.2268170982
        2.1845261784        1.7621203045        6.2900329864
        2.2074859909        1.6650947174        6.3647711969
        2.2360194154        1.5783357857        6.4501751555
        2.2694864449        1.5027144950        6.5446183936
        2.3071963260        1.4386523220        6.6462422629
        2.3485337916        1.3865186146        6.7533646935
        2.3929565577        1.3468528189        6.8645846269
        2.4399069190        1.3201962869        6.9786523787
        2.4887296428        1.3066089331        7.0943285222
        2.5386735462        1.3052036055        7.2104127480
        2.5889918681        1.3140683358        7.3259423544
        2.6390900255        1.3307269994        7.4403923352
        2.6886386213        1.3529547715        7.5536871492
        2.7375884884        1.3795378989        7.6659677264
        2.7860769515        1.4105943367        7.7772349226
        2.8342683447        1.4473265596        7.8870747591
        2.8821992965        1.4913876904        7.9946048820
        2.9296903812        1.5442129770        8.0986272177
        2.9763498229        1.6066154112        8.1978508278
        3.0216526965        1.6787346292        8.2910447125
        3.0650508449        1.7602186058        8.3770771134
        3.1060653042        1.8504368566        8.4549041652
        3.1443318744        1.9485918685        8.5235994736
        3.1795983558        2.0537290608        8.5824537069
        3.2116926609        2.1647344903        8.6310827758
        3.2404846821        2.2803987269        8.6694461686
        3.2658537497        2.3995440761        8.6977255657
        3.2876602245        2.5211379416        8.7161088041
        3.3057172382        2.6443084641        8.7245921999
        3.3197695167        2.7682418969        8.7229073986
        3.3294994731        2.8920246030        8.7106078887
        3.3345795206        3.0145356772        8.6872674418
        3.3347662272        3.1344700885        8.6526973338
        3.3299980011        3.2504940251        8.6070947765
        2.1506737687        2.0969536679        6.1329665555
        2.1460182684        1.9817942688        6.1778690369
        2.1467609082        1.8710334062        6.2329217386
        2.1536270153        1.7669734497        6.2995165580
        2.1668582265        1.6717909109        6.3778931623
        2.1862379037        1.5870892927        6.4670571604
        2.2112532414        1.5137846441        6.5652067307
        2.2412711047        1.4523256264        6.6703416768
        2.2756420287        1.4030255633        6.7806911257
        2.3137226535        1.3662220197        6.8947967844
        2.3548609056        1.3421226055        7.0113601260
        2.3983920426        1.3304420786        7.1291031367
        2.4436630729        1.3301114223        7.2468185668
        2.4900739552        1.3393208295        7.3635809499
        2.5371180409        1.3559571761        7.4789286812
        2.5844147579        1.3782481889        7.5928347802
        2.6317338471        1.4052934188        7.7054425524
        2.6790027741        1.4372268060        7.8167180441
        2.7262785259        1.4749663496        7.9262259120
        2.7736709634        1.5197235515        8.0331349614
        2.8212317624        1.5725379955        8.1363924889
        2.8688524768        1.6340314414        8.2349054390
        2.9162209984        1.7044084560        8.3276016020
        2.9628578282        1.7835848733        8.4133740001
        3.0082098512        1.8712881126        8.4910240846
        3.0517514286        1.9670487197        8.5593247349
        3.0930493993        2.0701202563        8.6172229216
        3.1317801500        2.1794357574        8.6640777961
        3.1677146213        2.2936864198        8.6997794518
        3.2006901948        2.4115142668        8.7246535072
        3.2305726340        2.5317164938        8.7391830011
        3.2572018271        2.6533348032        8.7436865811
        3.2803297432        2.7755696753        8.7381163489
        3.2995869700        2.8975757810        8.7220739021
        3.3145227855        3.0182824738        8.6950332439
        3.3247294306        3.1363782317        8.6566626428
        3.3299980011        3.2504940251        8.6070947765
        2.1506737687        2.0969536679        6.1329665555
        2.1356705022        1.9842950507        6.1805575327
        2.1260616498        1.8760374784        6.2384017326
        2.1227885690        1.7745696057        6.3080423544
        2.1263111464        1.6821398868        6.3897208904
        2.1366305056        1.6004433361        6.4823296684
        2.1534075596        1.5304986651        6.5839016121
        2.1760593433        1.4727675496        6.6922720607
        2.2038088165        1.4273426888        6.8055391187
        2.2357469529        1.3940498509        6.9221697662
        2.2709608560        1.3724299655        7.0408657094
        2.3087016870        1.3616859585        7.1604263898
        2.3484958831        1.3607110465        7.2797666325
        2.3901173535        1.3682517070        7.3980598642
        2.4334335313        1.3831586919        7.5148472437
        2.4782354058        1.4046169917        7.6299762655
        2.5241763043        1.4322562992        7.7433748092
        2.5708599800        1.4661097824        7.8548017792
        2.6180020664        1.5064636274        7.9637329211
        2.6655331881        1.5536814651        8.0694313462
        2.7135589756        1.6080815854        8.1711092423
        2.7622005009        1.6699013482        8.2680248506
        2.8114212554        1.7393267088        8.3594235647
        2.8609443709        1.8165229896        8.4443705305
        2.9102895935        1.9015993628        8.5216268467
        2.9588807673        1.9944825975        8.5897130485
        3.0061506201        2.0947476734        8.6471863633
        3.0516037897        2.2015095686        8.6930120433
        3.0948447217        2.3134738713        8.7268305859
        3.1355882635        2.4291599148        8.7489621554
        3.1736467913        2.5471928767        8.7601243589
        3.2088699906        2.6664942360        8.7609935578
        3.2410385879        2.7862475077        8.7518292945
        3.2697690686        2.9056648025        8.7323577082
        3.2945159870        3.0237312440        8.7019814674
        3.3147139738        3.1391389847        8.6602121939
        3.3299980011        3.2504940251        8.6070947765
        2.1506737687        2.0969536679        6.1329665555
        2.1254454882        1.9876813119        6.1829180409
        2.1055839588        1.8828304220        6.2432122517
        2.0922544089        1.7848517508        6.3155372878
        2.0861746734        1.6960715153        6.4001564480
        2.0876348744        1.6183301663        6.4958759946
        2.0965442620        1.5528163920        6.6005631762
        2.1123944348        1.5000072856        6.7118455606
        2.1342046145        1.4596475678        6.8276323937
        2.1606158778        1.4308063854        6.9463014498
        2.1902187960        1.4121002799        7.0666250328
        2.2219963156        1.4020912600        7.1876192661
        2.2556200113        1.3997204926        7.3084564669
        2.2913913180        1.4045599311        7.4284582588
        2.3298460111        1.4167443783        7.5470986525
        2.3712702097        1.4366391747        7.6639506756
        2.4154321483        1.4644597827        7.7785815813
        2.4616744394        1.5000681076        7.8904656689
        2.5092611744        1.5430284503        7.9989824814
        2.5577198039        1.5928311166        8.1035028996
        2.6069602691        1.6491134846        8.2034893426
        2.6571379602        1.7117624480        8.2985097409
        2.7083995296        1.7808936469        8.3881130888
        2.7606902332        1.8567665866        8.4716108873
        2.8137088059        1.9396737034        8.5478939282
        2.8669730416        2.0297919114        8.6154301907
        2.9199092409        2.1269883149        8.6725149138
        2.9719182834        2.2306417809        8.7177069467
        3.0224320244        2.3396033972        8.7502573755
        3.0709816643        2.4523796427        8.7702978630
        3.1172510577        2.5674764357        8.7786508714
        3.1610501974        2.6836987382        8.7763214646
        3.2021818094        2.8001976126        8.7639264168
        3.2402731528        2.9162317130        8.7413843826
        3.2747142549        3.0308420761        8.7080642236
        3.3047970622        3.1427319997        8.6633204554
        3.3299980011        3.2504940251        8.6070947765
        2.1506737687        2.0969536679        6.1329665555
        2.1154229711        1.9919274003        6.1849327527
        2.0854892096        1.8913596534        6.2473137933
        2.0622663908        1.7977387813        6.3219354918
        2.0467713388        1.7134739160        6.4091057834
        2.0396657134        1.6406007397        6.5075704880
        2.0412111353        1.5805474311        6.6150210888
        2.0510491086        1.5338430238        6.7288205650
        2.0679807729        1.4998469557        6.8466216895
        2.0900579571        1.4767657508        6.9666952210
        2.1151308343        1.4621654345        7.0879518898
        2.1416431176        1.4538732488        7.2097540889
        2.1692151415        1.4508293833        7.3316519180
        2.1986322778        1.4533919449        7.4531616733
        2.2312264870        1.4629049471        7.5736564275
        2.2680325123        1.4808034117        7.6923766146
        2.3092271028        1.5078093901        7.8085146554
        2.3541369170        1.5436651269        7.9213059512
        2.4017091911        1.5874524076        8.0300799195
        2.4510697000        1.6381713315        8.1342695897
        2.5018166726        1.6951649416        8.2334053945
        2.5539520418        1.7581949446        8.3271014838
        2.6076095923        1.8272750481        8.4150008694
        2.6628161775        1.9024976252        8.4966353500
        2.7194068377        1.9839771918        8.5712170109
        2.7770513794        2.0718351021        8.6374806938
        2.8352892746        2.1660797850        8.6937478114
        2.8935361176        2.2663650262        8.7382980876
        2.9511147605        2.3717961406        8.7699326023
        3.0073639219        2.4809915988        8.7884222565
        3.0617813102        2.5924256838        8.7945258256
        3.1140754998        2.7048257548        8.7894905251
        3.1640406688        2.8173164583        8.7742916948
        3.2113218926        2.9291973628        8.7490839929
        3.2552702831        3.0395622331        8.7132390807
        3.2950550590        3.1471305267        8.6659651534
        3.3299980011        3.2504940251        8.6070947765
        2.1506737687        2.0969536679        6.1329665555
        2.1056813320        1.9970007124        6.1865865251
        2.0659365821        1.9015580700        6.2506726409
        2.0330619338        1.8131255870        6.3271786946
        2.0084086682        1.7341916610        6.4164786347
        1.9930910427        1.6670175041        6.5172799753
        1.9878433034        1.6133281968        6.6270847484
        1.9925821450        1.5737742479        6.7429339770
        2.0059630087        1.5473994676        6.8621564860
        2.0254092804        1.5316060675        6.9828899101
        2.0478515236        1.5229311093        7.1042264271
        2.0708975243        1.5184048615        7.2259672945
        2.0937735932        1.5167702318        7.3481325303
        2.1174565913        1.5188297297        7.4704888076
        2.1439206890        1.5267154298        7.5923386185
        2.1749850127        1.5425736661        7.7126420232
        2.2114591881        1.5675005959        7.8303236417
        2.2530125434        1.6013110765        7.9445121076
        2.2986735502        1.6430915682        8.0545509896
        2.3474938679        1.6919754913        8.1598337588
        2.3989263087        1.7475539649        8.2596669592
        2.4527868995        1.8097497837        8.3533184923
        2.5089990361        1.8784475562        8.4402000869
        2.5674018606        1.9533024671        8.5199577173
        2.6277378366        2.0338839507        8.5922835100
        2.6897199940        2.1199369720        8.6565157882
        2.7530250516        2.2114202787        8.7113513319
        2.8171887231        2.3082110361        8.7550054407
        2.8815328103        2.4097155918        8.7858551447
        2.9452553951        2.5147531802        8.8031957996
        3.0076533351        2.6218517255        8.8075665646
        3.0682842953        2.7297181687        8.8003434385
        3.1268927876        2.8374750364        8.7828186638
        3.1831326429        2.9444639928        8.7553934989
        3.2363332920        3.0498265689        8.7174694555
        3.2855628808        3.1523016037        8.6681273942
        3.3299980011        3.2504940251        8.6070947765
        2.1506737687        2.0969536679        6.1329665555
        2.0962969448        2.0028619628        6.1878670245
        2.0470817202        1.9133446293        6.2532613041
        2.0048717089        1.8308840615        6.3312170885
        1.9713739241        1.7580284785        6.4221907772
        1.9482159499        1.6972611922        6.5248709034
        1.9367131371        1.6506299920        6.6365629528
        1.9372047990        1.6189871396        6.7539459456
        1.9483476523        1.6012128328        6.8739730362
        1.9670154034        1.5941014503        6.9946169949
        1.9891571045        1.5933108518        7.1151576883
        2.0113011114        1.5950511688        7.2358740839
        2.0318754754        1.5975845967        7.3573110864
        2.0515732476        1.6016406676        7.4795508547
        2.0726000683        1.6095472357        7.6019138386
        2.0973492017        1.6237241349        7.7232084927
        2.1273383639        1.6455435065        7.8422514382
        2.1629374190        1.6751773776        7.9582032632
        2.2037995763        1.7122641871        8.0704605075
        2.2494698246        1.7566657310        8.1782559203
        2.2996778286        1.8086650113        8.2803958039
        2.3542178847        1.8685412821        8.3754531097
        2.4126949960        1.9360180172        8.4623146090
        2.4744660039        2.0101459828        8.5406109909
        2.5388418851        2.0897439857        8.6105856701
        2.6053281998        2.1739970733        8.6724020033
        2.6736430814        2.2626753513        8.7253986298
        2.7434843562        2.3557904010        8.7679333149
        2.8142783810        2.4530137938        8.7980488277
        2.8851715869        2.5533810595        8.8145413456
        2.9552897166        2.6555242728        8.8176402314
        3.0240172627        2.7581856643        8.8087509928
        3.0910117173        2.8605196472        8.7894153233
        3.1559167156        2.9619160187        8.7602587800
        3.2180480532        3.0615580440        8.7207250590
        3.2763934142        3.1582062944        8.6697917712
        3.3299980011        3.2504940251        8.6070947765
        2.1506737687        2.0969536679        6.1329665555
        2.0873435389        2.0094655125        6.1887648418
        2.0290754330        1.9266250990        6.2550589343
        1.9779179740        1.8508650400        6.3340106496
        1.9359327858        1.7847542936        6.4261680920
        1.9052809595        1.7309518300        6.5302196945
        1.8879197295        1.6918032341        6.6432852474
        1.8847323004        1.6684180749        6.7616779588
        1.8945503728        1.6596929505        6.8819584557
        1.9138674176        1.6620869173        7.0019084685
        1.9377210391        1.6706161174        7.1209654617
        1.9614411662        1.6807066405        7.2398642537
        1.9823202877        1.6898772802        7.3596818038
        2.0002756964        1.6982789515        7.4808727317
        2.0172416957        1.7078876842        7.6028867274
        2.0358410685        1.7210466410        7.7245231154
        2.0582372822        1.7393906118        7.8446186503
        2.0857483650        1.7637351872        7.9624330366
        2.1191311560        1.7946795339        8.0773982394
        2.1589819732        1.8331468173        8.1884934814
        2.2057775618        1.8802667870        8.2938899848
        2.2595506737        1.9366812288        8.3913257201
        2.3195983043        2.0019135321        8.4790426513
        2.3846029908        2.0744093635        8.5565695208
        2.4531566992        2.1522800923        8.6246567342
        2.5242932235        2.2341822670        8.6843010310
        2.5976142709        2.3196640031        8.7355485614
        2.6729489767        2.4087743586        8.7770086177
        2.7498865819        2.5013429241        8.8065052587
        2.8276038481        2.5965627032        8.8224114095
        2.9051071583        2.6931771073        8.8246538778
        2.9816122816        2.7900068492        8.8146138456
        3.0566653796        2.8862731820        8.7940078880
        3.1298784291        2.9814210221        8.7636365459
        3.2005539507        3.0746683336        8.7229823442
        3.2676169532        3.1647999723        8.6709464528
        3.3299980011        3.2504940251        8.6070947765
        2.1506737687        2.0969536679        6.1329665555
        2.0788915773        2.0167597532        6.1892735734
        2.0120624472        1.9412929621        6.2560516952
        1.9524136030        1.8729009241        6.3355307363
        1.9023324451        1.8141152930        6.4283516079
        1.8644781247        1.7676803309        6.5332235923
        1.8414312766        1.7361527825        6.6471180664
        1.8346633021        1.7208966155        6.7660288470
        1.8433184026        1.7209716814        6.8861585329
        1.8637144669        1.7327781344        7.0050921316
        1.8901601919        1.7509708184        7.1223676419
        1.9168370077        1.7703115895        7.2390931275
        1.9397542118        1.7874446896        7.3568237529
        1.9577350575        1.8016191211        7.4764062540
        1.9720651263        1.8141235077        7.5975088893
        1.9852996116        1.8270584865        7.7190239053
        2.0001288524        1.8423849131        7.8398530998
        2.0188954492        1.8617549975        7.9593168782
        2.0436760254        1.8868721877        8.0768046066
        2.0763869788        1.9196920097        8.1910076308
        2.1184966672        1.9620112409        8.2995268276
        2.1704501040        2.0146475048        8.3994048733
        2.2313208144        2.0768831170        8.4883584994
        2.2991123980        2.1467112318        8.5658151690
        2.3716194298        2.2217953201        8.6328877521
        2.4472841488        2.3004789515        8.6911885744
        2.5254755885        2.3821537726        8.7413035356
        2.6060826889        2.4668249882        8.7820652005
        2.6888475740        2.5543421272        8.8111862332
        2.7730123823        2.6439587061        8.8267714948
        2.8575071986        2.7345115891        8.8285451470
        2.9413989175        2.8249316829        8.8178623006
        3.0241137320        2.9145368603        8.7965434439
        3.1052139223        3.0028309384        8.7654959519
        3.1839840640        3.0890585147        8.7242249024
        3.2593006630        3.1720326483        8.6715832517
        3.3299980011        3.2504940251        8.6070947765
        2.1506737687        2.0969536679        6.1329665555
        2.0710076526        2.0246875439        6.1893898688
        1.9961802100        1.9572304467        6.2562330563
        1.9285616336        1.8968086027        6.3357617142
        1.8708081448        1.8458448346        6.4287026052
        1.8259819328        1.8070436164        6.5338099858
        1.7971750101        1.7830281651        6.6479724666
        1.7863827199        1.7753386828        6.7669642635
        1.7931142884        1.7832679393        6.8867222334
        1.8136984345        1.8033805158        7.0046607137
        1.8419753144        1.8302564918        7.1203471791
        1.8712061407        1.8582119199        7.2351256530
        1.8962273171        1.8830878211        7.3509047321
        1.9147455249        1.9031845285        7.4688787326
        1.9272953944        1.9190446867        7.5889695182
        1.9362522126        1.9325438129        7.7102047102
        1.9447414982        1.9460486443        7.8315193741
        1.9560376914        1.9620767887        7.9521778081
        1.9734062596        1.9832909320        8.0714137498
        1.9999139568        2.0123383890        8.1876531363
        2.0378675120        2.0512672403        8.2981527545
        2.0880654171        2.1007765333        8.3996215146
        2.1494343001        2.1598793726        8.4895665773
        2.2194775122        2.2263524345        8.5674037214
        2.2953828164        2.2977678069        8.6344159555
        2.3751151252        2.3724465858        8.6924671466
        2.4578176837        2.4497358078        8.7423509636
        2.5433757097        2.5295435220        8.7829866527
        2.6316174658        2.6116212516        8.8120587530
        2.7218258676        2.6952003561        8.8275971589
        2.8128705551        2.7791985285        8.8292764001
        2.9036934029        2.8626841232        8.8184557137
        2.9936060296        2.9450923827        8.7969917454
        3.0821097713        3.0259834151        8.7658198028
        3.1684642623        3.1046198228        8.7244437635
        3.2515080709        3.1798493397        8.6716976719
        3.3299980011        3.2504940251        8.6070947765
        2.1506737687        2.0969536679        6.1329665555
        2.0637539105        2.0331866948        6.1891134408
        1.9815577253        1.9743096417        6.2556039658
        1.9065549703        1.9223922257        6.3347023315
        1.8415908990        1.8796727326        6.4272069990
        1.7899863568        1.8486744418        6.5319433400
        1.7551500630        1.8319048024        6.6458048824
        1.7394310952        1.8309357420        6.7644885430
        1.7426585017        1.8452736382        6.8838069076
        1.7613132457        1.8717906966        7.0010631783
        1.7890742044        1.9052602915        7.1157822192
        1.8186654335        1.9398623646        7.2293665779
        1.8441076552        1.9709143320        7.3438858808
        1.8622626702        1.9959925389        7.4607628490
        1.8730897320        2.0150704625        7.5801444395
        1.8788642390        2.0299195745        7.7011922186
        1.8831037132        2.0433257168        7.8228184750
        1.8897971114        2.0585052155        7.9441076721
        1.9029864742        2.0787073125        8.0640362650
        1.9263483368        2.1067658927        8.1808205538
        1.9625167372        2.1445049827        8.2916551970
        2.0123419955        2.1922312392        8.3933466338
        2.0746119124        2.2486992387        8.4835750171
        2.1466056071        2.3117112304        8.5618796982
        2.2252883815        2.3790695338        8.6295356080
        2.3084590682        2.4493184804        8.6882795903
        2.3951711197        2.5218567448        8.7387514329
        2.4852829271        2.5964711118        8.7797912354
        2.5786201866        2.6727545093        8.8091193550
        2.6744430537        2.7498866587        8.8248749565
        2.7715540054        2.8268795969        8.8268324999
        2.8687943930        2.9029652121        8.8163825634
        2.9653779715        2.9777044657        8.7953463740
        3.0607414790        3.0507032906        8.7646052669
        3.1541123143        3.1212344594        8.7236375631
        3.2442985882        3.1881904769        8.6712889332
        3.3299980011        3.2504940251        8.6070947765
        2.1506737687        2.0969536679        6.1329665555
        2.0571875033        2.0421904934        6.1884470398
        1.9683144056        1.9923936653        6.2541728674
        1.8865758048        1.9494454740        6.3323665914
        1.8149135086        1.9153308495        6.4238784172
        1.7567362488        1.8922578967        6.5276298050
        1.7155272467        1.8824319469        6.6406155584
        1.6937508555        1.8872788042        6.7586168298
        1.6914395851        1.9064315852        6.8774893140
        1.7053278534        1.9371367176        6.9945088938
        1.7292658063        1.9745947777        7.1090964648
        1.7559282846        2.0132143582        7.2225211567
        1.7790432850        2.0482157218        7.3367777123
        1.7950801416        2.0768566135        7.4533369735
        1.8037417902        2.0988407320        7.5724899098
        1.8073542385        2.1159516710        7.6935153327
        1.8097733368        2.1312773160        7.8152813239
        1.8154092990        2.1483878107        7.9366368683
        1.8285529570        2.1706253448        8.0562603848
        1.8528198267        2.2005067199        8.1722259858
        1.8905356191        2.2392648253        8.2818948557
        1.9421996326        2.2866725871        8.3825079449
        2.0064066336        2.3413023119        8.4722176161
        2.0804730404        2.4011827323        8.5507988068
        2.1615552840        2.4645521142        8.6193932265
        2.2476521629        2.5303074404        8.6793354940
        2.3379189299        2.5979417339        8.7308523969
        2.4322014227        2.6671195370        8.7725958646
        2.5302486457        2.7372803853        8.8023826998
        2.6312350227        2.8075823141        8.8186008049
        2.7338884848        2.8771695996        8.8212218988
        2.8369793595        2.9454569528        8.8116616087
        2.9396489172        3.0121236979        8.7916253398
        3.0412719181        3.0768041273        8.7618640503
        3.1410370206        3.1387764377        8.7218125569
        3.2377270641        3.1969923471        8.6703599721
        3.3299980011        3.2504940251        8.6070947765
        2.1506737687        2.0969536679        6.1329665555
        2.0513600819        2.0516282690        6.1873963929
        1.9565589253        2.0113378623        6.2519555304
        1.8687943773        1.9777531521        6.3287839302
        1.7910123097        1.9525539719        6.4187595848
        1.7265422210        1.9375300073        6.5209198801
        1.6787016385        1.9344313241        6.6324495104
        1.6498227840        1.9443721296        6.7493652636
        1.6400040534        1.9670002199        6.8677273980