VARIABLES = X, Y, Z
ZONE I=       37  J=       73  F=POINT
        1.9684096682        1.8884685386        4.3361304115
        1.9973534074        1.7816426761        4.3961705808
        2.0341226321        1.6835005812        4.4665599744
        2.0778399237        1.5951821376        4.5460175364
        2.1274823225        1.5173816082        4.6330278951
        2.1821795469        1.4507182119        4.7261729062
        2.2413209776        1.3960473183        4.8242077000
        2.3044184401        1.3543779744        4.9259377004
        2.3708392910        1.3263279164        5.0301051518
        2.4396198587        1.3114209522        5.1354623849
        2.5095216401        1.3077385491        5.2410254569
        2.5793285720        1.3122964994        5.3463174848
        2.6482135094        1.3220884977        5.4513777080
        2.7159435840        1.3352967475        5.5564626139
        2.7827891535        1.3520183800        5.6615874530
        2.8491853061        1.3741100710        5.7661814926
        2.9153439084        1.4042529874        5.8690633983
        2.9810313336        1.4447638318        5.9687341279
        3.0456092363        1.4967635623        6.0637870259
        3.1082705044        1.5600369035        6.1531865840
        3.1683011964        1.6334843935        6.2362896584
        3.2252184753        1.7157713142        6.3126718391
        3.2787428195        1.8057762262        6.3819349325
        3.3286731031        1.9026792983        6.4436380656
        3.3747714768        2.0058020715        6.4973613784
        3.4167212822        2.1144274164        6.5427948337
        3.4541467306        2.2277494021        6.5797358246
        3.4866421048        2.3449360733        6.6079740403
        3.5137764283        2.4651848052        6.6271538974
        3.5350888897        2.5876809093        6.6367400445
        3.5501190520        2.7114843756        6.6361434673
        3.5584947463        2.8354540085        6.6249505331
        3.5600466787        2.9582988100        6.6031232498
        3.5548793463        3.0787446784        6.5710568069
        3.5433396606        3.1957091272        6.5294697742
        3.5258837276        3.3083648813        6.4791959278
        3.5029073037        3.4160499550        6.4209859157
        1.9684096682        1.8884685386        4.3361304115
        1.9879441562        1.7835776506        4.4014423193
        2.0156656302        1.6876708055        4.4773944190
        2.0508104488        1.6019407661        4.5625154402
        2.0923654829        1.5270266990        4.6550644486
        2.1393895117        1.4633938590        4.7534487651
        2.1911953638        1.4117189305        4.8563326411
        2.2472990263        1.3729135949        4.9624821441
        2.3071866992        1.3476465546        5.0705915706
        2.3700720418        1.3356062336        5.1793254614
        2.4348312788        1.3350134851        5.2876035042
        2.5001952510        1.3428290089        5.3949213670
        2.5651095807        1.3557084595        5.5014275324
        2.6290556691        1.3712811915        5.6076269706
        2.6921363948        1.3890857575        5.7138455554
        2.7548664942        1.4106597821        5.8197664719
        2.8177808496        1.4387550948        5.9243093155
        2.8810729707        1.4761270881        6.0258966059
        2.9444419037        1.5245315583        6.1229088458
        3.0071898704        1.5843612482        6.2140404759
        3.0684702375        1.6549328099        6.2983838971
        3.1275256131        1.7350831132        6.3752839976
        3.1838027340        1.8236594140        6.4441541533
        3.2369335517        1.9196850559        6.5044255286
        3.2866507033        2.0222642789        6.5556504394
        3.3327129998        2.1304452344        6.5976310214
        3.3748677332        2.2432081441        6.6304169067
        3.4128274502        2.3595728771        6.6541254047
        3.4462348006        2.4786909021        6.6686909452
        3.4746274392        2.5998033090        6.6737241393
        3.4974510355        2.7220779964        6.6685985133
        3.5141578790        2.8444605601        6.6527330414
        3.5243690231        2.9656777209        6.6259102364
        3.5280143318        3.0844157465        6.5884487758
        3.5253535236        3.1995553850        6.5411415509
        3.5168425487        3.3102924596        6.4850058146
        3.5029073037        3.4160499550        6.4209859157
        1.9684096682        1.8884685386        4.3361304115
        1.9784089758        1.7863428130        4.4062527847
        1.9969688282        1.6935089375        4.4872997304
        2.0234996017        1.6112435340        4.5776206915
        2.0570385685        1.5401631170        4.6752502289
        2.0965393323        1.4805347750        4.7784098745
        2.1411095694        1.4326679134        4.8856665730
        2.1900971905        1.3970621940        4.9957729303
        2.2429974393        1.3741318525        5.1074456100
        2.2992514133        1.3636322269        5.2193519423
        2.3580765908        1.3641779232        5.3303706000
        2.4184614425        1.3732637133        5.4399355824
        2.4793609729        1.3879311802        5.5481667609
        2.5399994393        1.4058214776        5.6556197490
        2.6001044872        1.4260809201        5.7627561396
        2.6599231589        1.4496328800        5.8694400351
        2.7199939533        1.4786779252        5.9747556954
        2.7807917976        1.5157127937        6.0772251438
        2.8424312999        1.5625946252        6.1752457096
        2.9045663049        1.6200827734        6.2674525860
        2.9664991169        1.6879540699        6.3528121614
        3.0273988916        1.7654489819        6.4304770168
        3.0864970264        1.8516829888        6.4996062186
        3.1431826004        1.9457954827        6.5593496290
        3.1970052830        2.0468667215        6.6090299196
        3.2476386222        2.1538053574        6.6483695968
        3.2948404049        2.2653811468        6.6775511292
        3.3384040189        2.3804037759        6.6970116119
        3.3780804290        2.4978922865        6.7070720928
        3.4134852505        2.6170739821        6.7076364007
        3.4440546854        2.7371960348        6.6981657447
        3.4691188395        2.8573001166        6.6779633549
        3.4880952180        2.9761557663        6.6466067506
        3.5007080082        3.0924289940        6.6042739855
        3.5070892399        3.2049715257        6.5517781578
        3.5076705536        3.3130064608        6.4903007479
        3.5029073037        3.4160499550        6.4209859157
        1.9684096682        1.8884685386        4.3361304115
        1.9688182605        1.7899140179        4.4105615292
        1.9781661487        1.7009557113        4.4961877155
        1.9961070025        1.6229875927        4.5911961107
        2.0217941783        1.5566528111        4.6933993702
        2.0540713979        1.5020059473        4.8008156216
        2.0917188101        1.4588308485        4.9119010917
        2.1336994947        1.4269113571        5.0254277323
        2.1793092089        1.4060757351        5.1402352418
        2.2281477423        1.3959811976        5.2551313833
        2.2799232384        1.3957965184        5.3690500523
        2.3342151188        1.4040503717        5.4813382443
        2.3903644790        1.4188469930        5.5919146053
        2.4475840241        1.4384277785        5.7011195647
        2.5052267672        1.4618148075        5.8092994466
        2.5630337591        1.4891795995        5.9163655025
        2.6211868444        1.5217167410        6.0215943668
        2.6801209540        1.5610884047        6.1237706771
        2.7402072003        1.6087521676        6.2215397458
        2.8014902847        1.6655238926        6.3137102139
        2.8636079820        1.7315392529        6.3993143880
        2.9258915233        1.8065041454        6.4774406766
        2.9875455957        1.8899643363        6.5470383565
        3.0477997314        1.9813828001        6.6069176773
        3.1059892663        2.0800232316        6.6560099801
        3.1615886146        2.1848204118        6.6937323243
        3.2142255563        2.2944250720        6.7201871767
        3.2636647034        2.4074453796        6.7360125968
        3.3097243957        2.5227167820        6.7419300593
        3.3521299182        2.6393849652        6.7382546999
        3.3903830905        2.7567302206        6.7246804576
        3.4237650638        2.8738792577        6.7004898131
        3.4515257303        2.9896568439        6.6650687464
        3.4731751886        3.1027249041        6.6184101147
        3.4886854996        3.2119158484        6.5612940141
        3.4984368375        3.3164856502        6.4950386493
        3.5029073037        3.4160499550        6.4209859157
        1.9684096682        1.8884685386        4.3361304115
        1.9592428650        1.7942609344        4.4143321574
        1.9593899410        1.7099378301        4.5039783004
        1.9688207123        1.6370406565        4.6031156180
        1.9868956672        1.5763015524        4.7093388254
        2.0123919941        1.5275939138        4.8204388548
        2.0436892066        1.4901002194        4.9347365326
        2.0791607428        1.4626811662        5.0510473477
        2.1176358652        1.4443067727        5.1684364153
        2.1586743531        1.4343335751        5.2860042379
        2.2024658713        1.4324781900        5.4028610401
        2.2493994858        1.4385321720        5.5182724251
        2.2995748450        1.4520507313        5.6318180094
        2.3525673624        1.4722746240        5.7433936382
        2.4075785495        1.4983722099        5.8530089747
        2.4638350556        1.5298406478        5.9604933088
        2.5209446760        1.5667751732        6.0653014678
        2.5789789955        1.6098092875        6.1665457076
        2.6382648944        1.6597728974        6.2632134580
        2.6990592202        1.7173136961        6.3543893851
        2.7613179669        1.7827223300        6.4392969694
        2.8246562669        1.8560077775        6.5171229782
        2.8884474789        1.9370577106        6.5867818597
        2.9519496153        2.0256716003        6.6468630391
        3.0143966024        2.1214068911        6.6958981954
        3.0750699896        2.2233878430        6.7328466080
        3.1333821179        2.3302973048        6.7574961159
        3.1889444204        2.4406302899        6.7704780171
        3.2415429552        2.5530536115        6.7728234289
        3.2909798439        2.6665998272        6.7653021889
        3.3368570342        2.7805438487        6.7479606192
        3.3784728628        2.8940775645        6.7201704873
        3.4149621707        3.0060822415        6.6811710738
        3.4456346269        3.1152268456        6.6307508990
        3.4702833673        3.2203350982        6.5696132946
        3.4892111994        3.3207029486        6.4991818194
        3.5029073037        3.4160499550        6.4209859157
        1.9684096682        1.8884685386        4.3361304115
        1.9497536556        1.7993474105        4.4175327054
        1.9407701736        1.7203692352        4.5106004364
        1.9418137949        1.6532429290        4.6132659833
        1.9525618113        1.5988564524        4.7229128394
        1.9718244277        1.5569822148        4.8370778953
        1.9975930420        1.5262380620        4.9539085962
        2.0275227331        1.5045092050        5.0722627409
        2.0597204697        1.4897606374        5.1915004488
        2.0934137038        1.4808460229        5.3111411328
        2.1290719010        1.4778350852        5.4305939411
        2.1678810807        1.4816535552        5.5490969020
        2.2108941669        1.4932816873        5.6658525831
        2.2583812966        1.5130493011        5.7802154631
        2.3097387800        1.5404695489        5.8917607887
        2.3639195547        1.5746453450        6.0001697505
        2.4200219863        1.6148810024        6.1050238702
        2.4776404980        1.6610398960        6.2056836585
        2.5368221851        1.7134497186        6.3013561988
        2.5977686383        1.7725300957        6.3912828463
        2.6605465425        1.8384923957        6.4748501467
        2.7249714442        1.9113192094        6.5514717258
        2.7906412011        1.9909311430        6.6202941059
        2.8569982178        2.0772750661        6.6799829894
        2.9233535198        2.1701720887        6.7288587391
        2.9889164153        2.2690339316        6.7654183517
        3.0529017485        2.3727275705        6.7889597632
        3.1146943425        2.4797676288        6.7998709649
        3.1739393929        2.5887266110        6.7993187279
        3.2304367739        2.6985414224        6.7884803623
        3.2838737461        2.8084682276        6.7678133898
        3.3336048424        2.9177473360        6.7368710744
        3.3787026870        3.0253109731        6.6948053833
        3.4183060008        3.1298413963        6.6412057676
        3.4520248906        3.2301647727        6.5766703605
        3.4800636037        3.3256256395        6.5026972580
        3.5029073037        3.4160499550        6.4209859157
        1.9684096682        1.8884685386        4.3361304115
        1.9404210759        1.8051318854        4.4201359811
        1.9224340223        1.7321527506        4.5159929854
        1.9152427847        1.6714110193        4.6215486948
        1.9189553071        1.6240087623        4.7339876605
        1.9325619561        1.5897330079        4.8505693561
        1.9537776189        1.5667818097        4.9692203602
        1.9795321551        1.5521786322        5.0888055582
        2.0070367176        1.5428886910        5.2089920231
        2.0348697847        1.5370980792        5.3297853304
        2.0634162136        1.5348890386        5.4509943247
        2.0943754720        1.5378789552        5.5719323491
        2.1296574810        1.5480711298        5.6915124714
        2.1703580996        1.5666824374        5.8086203486
        2.2163869841        1.5936735882        5.9224528261
        2.2668278716        1.6281552886        6.0325567245
        2.3206342826        1.6692191590        6.1385641182
        2.3771402080        1.7165209134        6.2398834403
        2.4361267065        1.7702532659        6.3356404315
        2.4975667801        1.8306855673        6.4249280607
        2.5613588094        1.8977582664        6.5071195037
        2.6272498260        1.9710764223        6.5819028492
        2.6949052397        2.0502242100        6.6489234245
        2.7639505011        2.1350212680        6.7072966501
        2.8338961310        2.2254233091        6.7554497874
        2.9040397415        2.3211346882        6.7915569324
        2.9735077851        2.4212959293        6.8143633803
        3.0414710785        2.5245559762        6.8238251697
        3.1073676593        2.6294876177        6.8210486492
        3.1709088400        2.7349852212        6.8075043757
        3.2318174381        2.8403001273        6.7840488430
        3.2895104431        2.9447135277        6.7504671442
        3.3430388557        3.0472002996        6.7058792886
        3.3914071956        3.1464587970        6.6496994673
        3.4340516876        3.2413295098        6.5824100474
        3.4710636295        3.3312156182        6.5055569379
        3.5029073037        3.4160499550        6.4209859157
        1.9684096682        1.8884685386        4.3361304115
        1.9313147254        1.8115678389        4.4221198605
        1.9045058759        1.7451820309        4.5201055575
        1.8892487615        1.6913438858        4.6278817329
        1.8861795206        1.6514041546        4.7424553863
        1.8946367457        1.6252874440        4.8607978834
        1.9122508041        1.6109863191        4.9805690694
        1.9353483171        1.6049037476        5.1005776018
        1.9601969305        1.6031443107        5.2207477058
        1.9844609174        1.6031271376        5.3415665158
        2.0080000311        1.6045525923        5.4633043850
        2.0325384916        1.6091248463        5.5854820655
        2.0604701591        1.6192655559        5.7069087530
        2.0935933434        1.6367167221        5.8262023938
        2.1325083982        1.6619192866        5.9423423869
        2.1768562794        1.6944024583        6.0548008122
        2.2259871131        1.7336626542        6.1631735296
        2.2794629893        1.7797395505        6.2666796087
        2.3370917624        1.8330755989        6.3640271507
        2.3986468843        1.8939055400        6.4538240848
        2.4636524925        1.9617957844        6.5352048029
        2.5314567253        2.0357560549        6.6080951899
        2.6014810111        2.1147967762        6.6727983811
        2.6733544278        2.1984094774        6.7291652558
        2.7467761872        2.2865422349        6.7760285118
        2.8212431243        2.3791154149        6.8114435958
        2.8959320948        2.4755324548        6.8336588946
        2.9698829857        2.5746207381        6.8421212935
        3.0423241461        2.6750245963        6.8377336668
        3.1128191505        2.7756589091        6.8221291040
        3.1810668164        2.8758012818        6.7964951788
        3.2465274961        2.9747743177        6.7608490673
        3.3082536551        3.0715865008        6.7143166524
        3.3651519421        3.1649535431        6.6561717753
        3.4165035594        3.2537435589        6.5867878466
        3.4622799158        3.3374296831        6.5077380314
        3.5029073037        3.4160499550        6.4209859157
        1.9684096682        1.8884685386        4.3361304115
        1.9225029458        1.8186042662        4.4234675351
        1.8871077123        1.7593436836        4.5228992698
        1.8639613359        1.7128304631        4.6322010693
        1.8542869703        1.6806613287        4.7482360557
        1.8579209910        1.6629941455        4.8676992684
        1.8726337595        1.6578400802        4.9879559706
        1.8943634190        1.6612783957        5.1076869815
        1.9185132216        1.6687753556        5.2269798805
        1.9416764431        1.6769630887        5.3467357205
        1.9627860335        1.6848201754        5.4677006665
        1.9830481694        1.6935639465        5.5897291408
        2.0048351592        1.7054511403        5.7117431388
        2.0303554758        1.7223995972        5.8323291895
        2.0609204184        1.7453422593        5.9504181817
        2.0970482716        1.7745465466        6.0654499182
        2.1389947300        1.8103564175        6.1768954793
        2.1870868661        1.8535657048        6.2836086385
        2.2415713650        1.9050653835        6.3836774651
        2.3022115644        1.9651064235        6.4750432734
        2.3681059984        2.0328714040        6.5564642418
        2.4379716893        2.1067707780        6.6280208247
        2.5106846118        2.1852453098        6.6906558161
        2.5856254120        2.2674303167        6.7450136315
        2.6625578094        2.3531792169        6.7904618169
        2.7411910472        2.4425047492        6.8251020865
        2.8208488178        2.5349702607        6.8468257516
        2.9005395139        2.6295449800        6.8546298680
        2.9793255943        2.7249739009        6.8491766514
        3.0566028572        2.8202461041        6.8321631417
        3.1319978552        2.9147000242        6.8050116867
        3.2049832748        3.0077024806        6.7679278261
        3.2746200242        3.0982859238        6.7200585900
        3.3397477856        3.1851851114        6.6605773262
        3.3995171589        3.2673113406        6.5897700092
        3.4537796088        3.3442198686        6.5092230911
        3.5029073037        3.4160499550        6.4209859157
        1.9684096682        1.8884685386        4.3361304115
        1.9140524078        1.8261861634        4.4241677047
        1.8703597189        1.7745193961        4.5243473954
        1.8395052452        1.7356581943        4.6344617876
        1.8233005737        1.7113975281        4.7512776360
        1.8221697195        1.7021669116        4.8712551827
        1.8342183288        1.7061701111        4.9914716290
        1.8552393452        1.7194373268        5.1104262169
        1.8799419974        1.7370420515        5.2282627996
        1.9038261276        1.7548909219        5.3461883992
        1.9246407226        1.7710454139        5.4653902179
        1.9426534169        1.7858567753        5.5861386427
        1.9597834108        1.8010364358        5.7076415406
        1.9783611946        1.8184730592        5.8286303171
        2.0003474428        1.8396189464        5.9480763546
        2.0272892855        1.8656501026        6.0653610148
        2.0606307374        1.8979134598        6.1797440138
        2.1017797373        1.9379916541        6.2896592176
        2.1516952827        1.9871555057        6.3926055052
        2.2103181141        2.0456120811        6.4859418534
        2.2764023723        2.1122148830        6.5680937989
        2.3480058187        2.1849569235        6.6392202530
        2.4233408353        2.2619271210        6.7007141235
        2.5013784124        2.3420359674        6.7538071537
        2.5818058731        2.4250246439        6.7982997638
        2.6644753323        2.5108678745        6.8323996172
        2.7488694856        2.5991428768        6.8538151115
        2.8340242423        2.6888809462        6.8612666763
        2.9188879919        2.7789294397        6.8552482538
        3.0026983937        2.8683917641        6.8374740042
        3.0849823600        2.9566946179        6.8094980523
        3.1651943161        3.0432475178        6.7716402818
        3.2423995958        3.1270962747        6.7230646906
        3.3153943300        3.2069988126        6.6628855186
        3.3832247411        3.2819280977        6.5913335966
        3.4456278191        3.3515338174        6.5100001851
        3.5029073037        3.4160499550        6.4209859157
        1.9684096682        1.8884685386        4.3361304115
        1.9060276892        1.8342550137        4.4242147119
        1.8543809669        1.7905878779        4.5244358769
        1.8160085805        1.7596213268        4.6346388310
        1.7932452495        1.7432570966        4.7515542568
        1.7871029476        1.7421623477        4.8714806329
        1.7961349756        1.7548175668        4.9912577398
        1.8161957367        1.7774003794        5.1091890032
        1.8415129994        1.8048150070        5.2253839441
        1.8666037054        1.8323817611        5.3412316092
        1.8879865432        1.8572438233        5.4582782680
        1.9048229322        1.8787856694        5.5772196973
        1.9183874266        1.8980749085        5.6976280097
        1.9310048020        1.9169501384        5.8184445265
        1.9452410711        1.9374226754        5.9386597958
        1.9636643796        1.9615797426        6.0574974130
        1.9888750171        1.9916430381        6.1739281981
        2.0232921564        2.0297241710        6.2860301938
        2.0685278648        2.0771945044        6.3909553402
        2.1247183501        2.1340734992        6.4858021843
        2.1903927655        2.1989667830        6.5688813263
        2.2631234649        2.2697147579        6.6403975495
        2.3405994697        2.3443587614        6.7019099363
        2.4214225590        2.4217783520        6.7548552191
        2.5051452423        2.5016236356        6.7991935647
        2.5916658027        2.5837280528        6.8332009074
        2.6805606319        2.6675595362        6.8545712754
        2.7708877319        2.7521477712        6.8619760246
        2.8615123559        2.8364477086        6.8558758571
        2.9515374489        2.9197081682        6.8379894247
        3.0403837696        3.0014577810        6.8099001335
        3.1274649288        3.0811383238        6.7719529796
        3.2118413567        3.1577980616        6.7233139993
        3.2922816931        3.2302267563        6.6630804481
        3.3677530049        3.2974806404        6.5914664954
        3.4378870959        3.3593151901        6.5100629883
        3.5029073037        3.4160499550        6.4209859157
        1.9684096682        1.8884685386        4.3361304115
        1.8984908386        1.8427492628        4.4236086126
        1.8392899021        1.8074264362        4.5231636808
        1.7936110957        1.7845276617        4.6327274623
        1.7641840445        1.7759374329        4.7490636665
        1.7525115026        1.7824594514        4.8684080874
        1.7575977781        1.8028374624        4.9874561282
        1.7754894504        1.8334966241        5.1043486357
        1.8001512710        1.8693561173        5.2191037695
        1.8253456440        1.9053605315        5.3331690013
        1.8465397926        1.9379293153        5.4483238685
        1.8619117890        1.9656507283        5.5656143993
        1.8721868370        1.9890995803        5.6849481212
        1.8797615839        2.0101738140        5.8054384741
        1.8878225065        2.0314504031        5.9260020614
        1.8998339326        2.0557673590        6.0455822094
        1.9192472446        2.0858877041        6.1628121256
        1.9490652689        2.1240330450        6.2755483491
        1.9911545898        2.1713226259        6.3809298832
        2.0456428765        2.2274361505        6.4762075607
        2.1109025637        2.2908164982        6.5598660553
        2.1843006717        2.3593933035        6.6321648200
        2.2633352269        2.4314157431        6.6945555865
        2.3464655667        2.5058853140        6.7482838834
        2.4331643486        2.5823833654        6.7931692287
        2.5233038839        2.6605484209        6.8274883163
        2.6164552422        2.7396884055        6.8490645215
        2.7116489178        2.8188260480        6.8567308547
        2.8076765926        2.8970516095        6.8510402057
        2.9035358103        2.9737817117        6.8336982238
        2.9985516036        3.0486419855        6.8062127907
        3.0920846916        3.1210860468        6.7688639953
        3.1831801470        3.1901560665        6.7208054361
        3.2705891244        3.2546889154        6.6611608144
        3.3532220354        3.3138481872        6.5901674088
        3.4306169227        3.3675041117        6.5094108309
        3.5029073037        3.4160499550        6.4209859157
        1.9684096682        1.8884685386        4.3361304115
        1.8915009159        1.8516047765        4.4223551811
        1.8252044210        1.8249120486        4.5205429781
        1.7724707676        1.8102025668        4.6287435578
        1.7362507131        1.8092063733        4.7438251833
        1.7183608832        1.8227198427        4.8620738908
        1.7181613126        1.8496628433        4.9801620870
        1.7319451372        1.8867305108        5.0961399525
        1.7536289480        1.9290101374        5.2099111801
        1.7765489794        1.9713411798        5.3228648402
        1.7954924153        2.0097664311        5.4368509744
        1.8080093524        2.0424377246        5.5531145389
        1.8145724380        2.0697266532        5.6717843460
        1.8178412161        2.0937219274        5.7920552548
        1.8216416207        2.1174780799        5.9126825840
        1.8301187528        2.1442791946        6.0322615541
        1.8471214346        2.1769923857        6.1490991969
        1.8756417320        2.2175196139        6.2609809789
        1.9172487063        2.2664401349        6.3653185461
        1.9717395494        2.3230116293        6.4598408260
        2.0373300272        2.3856050637        6.5434283520
        2.1114483319        2.4524041721        6.6164088580
        2.1917672563        2.5220040891        6.6799411402
        2.2768903466        2.5935928397        6.7348160066
        2.3663256014        2.6666925984        6.7805258919
        2.4598879362        2.7407513202        6.8153268815
        2.5570605208        2.8149492943        6.8372861742
        2.6567984157        2.8883555807        6.8455367108
        2.7578302441        2.9602367537        6.8407792233
        2.8590853171        3.0301812225        6.8246519516
        2.9598155337        3.0978850434        6.7984800465
        3.0593253966        3.1627867116        6.7624026028
        3.1566350404        3.2239207178        6.7155574996
        3.2504837568        3.2801942929        6.6571397876
        3.3397443475        3.3309033062        6.5874458329
        3.4238732412        3.3760376485        6.5080487054
        3.5029073037        3.4160499550        6.4209859157
        1.9684096682        1.8884685386        4.3361304115
        1.8851135099        1.8607552785        4.4204658469
        1.8122413404        1.8429218680        4.5165991316
        1.7527669199        1.8364894873        4.6227238241
        1.7096705309        1.8429064703        4.7358792240
        1.6848650605        1.8628109623        4.8525122142
        1.6779138209        1.8951818396        4.9693992395
        1.6853667070        1.9369691022        5.0845888047
        1.7013146775        1.9835682058        5.1978688882