VARIABLES = X, Y, Z
ZONE I=       37  J=       73  F=POINT
        1.8831684833        1.8060667527        3.4713013556
        1.9226249490        1.7100749614        3.5430150426
        1.9700197832        1.6242606805        3.6227796685
        2.0240514148        1.5490412478        3.7089610620
        2.0836355229        1.4847676897        3.8001489844
        2.1480441129        1.4320805310        3.8951797141
        2.2167293370        1.3917761216        3.9929825087
        2.2889812695        1.3641582421        4.0924782745
        2.3636971099        1.3482917773        4.1926829272
        2.4394709455        1.3417666749        4.2929580617
        2.5149872860        1.3413340146        4.3931826237
        2.5894757268        1.3442196672        4.4936361507
        2.6629218919        1.3494276313        4.5945846934
        2.7358798843        1.3582709639        4.6957943120
        2.8089900071        1.3737901837        4.7962813152
        2.8824916192        1.3993696052        4.8944706976
        2.9560087094        1.4373142457        4.9886697156
        3.0286932949        1.4881173686        5.0775628611
        3.0995823229        1.5506801930        5.1604392507
        3.1679158858        1.6231751267        5.2370615802
        3.2332372592        1.7039436722        5.3073261151
        3.2952740631        1.7919416012        5.3709737316
        3.3537439837        1.8866385567        5.4275281030
        3.4082414937        1.9876379312        5.4764414121
        3.4582583854        2.0943741176        5.5172772817
        3.5032715704        2.2060659274        5.5497623001
        3.5427947629        2.3218486841        5.5736729584
        3.5763540091        2.4408844555        5.5886747940
        3.6034415653        2.5623276699        5.5942751593
        3.6235380971        2.6851969708        5.5899616156
        3.6362362137        2.8083066901        5.5754512397
        3.6413987697        2.9303589493        5.5508869826
        3.6392313849        3.0501487850        5.5168488335
        3.6301915082        3.1667263937        5.4741695213
        3.6147676765        3.2793852510        5.4236652415
        3.5932578854        3.3874779800        5.3659317874
        3.5656827407        3.4901921552        5.3013017512
        1.8831684833        1.8060667527        3.4713013556
        1.9140380995        1.7128721517        3.5492167024
        1.9533122903        1.6302341646        3.6352730991
        1.9996701633        1.5584972174        3.7276080488
        2.0518997907        1.4978078168        3.8246532540
        2.1091369288        1.4485560612        3.9251760605
        2.1708081759        1.4113858105        4.0280830183
        2.2363391221        1.3866532183        4.1322540148
        2.3048540765        1.3736561934        4.2366162522
        2.3751118197        1.3702268485        4.3404320333
        2.4457665998        1.3731403091        4.4435539719
        2.5158148365        1.3792952260        4.5463777104
        2.5849445562        1.3870860763        4.6494244709
        2.6535508142        1.3971908925        4.7527646009
        2.7223882351        1.4122978410        4.8556352226
        2.7920589442        1.4359067882        4.9564969831
        2.8626262949        1.4708671322        5.0534911985
        2.9335462665        1.5184140222        5.1450045359
        3.0038983056        1.5781007764        5.2300037727
        3.0727260064        1.6484662479        5.3079894408
        3.1392745051        1.7278983191        5.3786870353
        3.2030290037        1.8151736783        5.4417491647
        3.2636115462        1.9094913929        5.4966815540
        3.3206657128        2.0101908617        5.5429969054
        3.3738148010        2.1164922890        5.5804151366
        3.4226791151        2.2274642704        5.6089064660
        3.4668794791        2.3421686915        5.6285196256
        3.5059856985        2.4597814506        5.6391261616
        3.5394523558        2.5795439573        5.6402928852
        3.5666333015        2.7005853097        5.6314081003
        3.5869242859        2.8217911252        5.6120031815
        3.5999764905        2.9418634744        5.5820683370
        3.6058411742        3.0595506874        5.5421609037
        3.6049245433        3.1738725260        5.4932395098
        3.5977510207        3.2841563322        5.4363282949
        3.5846688929        3.3898418485        5.3722085983
        3.5656827407        3.4901921552        5.3013017512
        1.8831684833        1.8060667527        3.4713013556
        1.9052558693        1.7164132168        3.5548582538
        1.9362669158        1.6377068290        3.6466454098
        1.9749090465        1.5702438235        3.7445723324
        2.0198166187        1.5139208789        3.8469071454
        2.0698633311        1.4686971719        3.9523561078
        2.1242751111        1.4347710353        4.0598480684
        2.1825010044        1.4122850651        4.1683056847
        2.2439480949        1.4007286788        4.2766528923
        2.3077809062        1.3984908738        4.3840775461
        2.3729506477        1.4030006669        4.4903229674
        2.4384653781        1.4115481927        4.5957174907
        2.5037386012        1.4224177819        4.7008235280
        2.5687837277        1.4357036296        4.8058702568
        2.6341099460        1.4533163684        4.9103124132
        2.7003636101        1.4781515285        5.0127934490
        2.7679175863        1.5128770618        5.1115276693
        2.8366313143        1.5589876363        5.2048446160
        2.9058805353        1.6165560108        5.2915550033
        2.9747841485        1.6846546950        5.3709537082
        3.0424585917        1.7620433826        5.4425466315
        3.1081626417        1.8476566684        5.5057707170
        3.1713103320        1.9406771417        5.5599421229
        3.2314244065        2.0403191914        5.6044568870
        3.2881074092        2.1456224428        5.6390523431
        3.3410389453        2.2554621303        5.6638831903
        3.3899465579        2.3687424644        5.6793110381
        3.4345114553        2.4845655898        5.6855351462
        3.4742498246        2.6022009399        5.6823288854
        3.5084765791        2.7208723663        5.6690877069
        3.5364337947        2.8395557968        5.6451829660
        3.5575498651        2.9569833686        5.6104043063
        3.5716738173        3.0718770847        5.5652097331
        3.5791090751        3.1832323517        5.5106269026
        3.5803882520        3.2904117867        5.4478718895
        3.5759115833        3.3929486998        5.3779230492
        3.5656827407        3.4901921552        5.3013017512
        1.8831684833        1.8060667527        3.4713013556
        1.8963411592        1.7206669726        3.5598942630
        1.9190030751        1.6466065967        3.6568039853
        1.9499593177        1.5841751720        3.7597163057
        1.9876985185        1.5330129772        3.8667262257
        2.0307272587        1.4925169534        3.9764788853
        2.0778715989        1.4621786133        4.0879707533
        2.1284111858        1.4416435911        4.2002703124
        2.1819794948        1.4304686250        4.3124204605
        2.2383017128        1.4277817293        4.4235970450
        2.2969521834        1.4321601055        4.5333661912
        2.3573033777        1.4419263906        4.6417826731
        2.4187020748        1.4557803958        4.7491780041
        2.4807410156        1.4734201467        4.8557202136
        2.5434211689        1.4957591528        4.9610112936
        2.6070766891        1.5245699476        5.0639819589
        2.6721021485        1.5617354709        5.1631468336
        2.7386524776        1.6085275167        5.2570390700
        2.8064870423        1.6652891105        5.3445311887
        2.8750128148        1.7316107376        5.4248506955
        2.9434486383        1.8067704153        5.4973373522
        3.0109845444        1.8900825395        5.5611841501
        3.0768661233        1.9809428000        5.6154086429
        3.1404238152        2.0786340550        5.6591114714
        3.2011017688        2.1821445721        5.6918385585
        3.2584961297        2.2902063709        5.7137573510
        3.3123481396        2.4015422832        5.7254726526
        3.3624365791        2.5151119723        5.7275661621
        3.4083980358        2.6301408282        5.7201579341
        3.4496016613        2.7459050817        5.7027968385
        3.4852137679        2.8614662446        5.6747755821
        3.5144684648        2.9756040378        5.6356778748
        3.5369903110        3.0870324459        5.5858021266
        3.5529344268        3.1947312611        5.5261832653
        3.5628066983        3.2981012985        5.4582002806
        3.5670515069        3.3967740612        5.3830299221
        3.5656827407        3.4901921552        5.3013017512
        1.8831684833        1.8060667527        3.4713013556
        1.8873574668        1.7255967613        3.5642840678
        1.9016369352        1.6568478191        3.6656659985
        1.9249981310        1.6001576819        3.7729176459
        1.9558377643        1.5549522726        3.8839470113
        1.9922457537        1.5200234112        3.9973244560
        2.0324760192        1.4939960576        4.1121423229
        2.0754065086        1.4757920580        4.2277077196
        2.1207263857        1.4648584488        4.3433109865
        2.1687233762        1.4610521050        4.4582058124
        2.2197987629        1.4642972265        4.5717594068
        2.2740184388        1.4742928489        4.6836024784
        2.3309726665        1.4905076179        4.7936137811
        2.3899905057        1.5124736746        4.9017057204
        2.4505108804        1.5401501235        5.0075390204
        2.5123308211        1.5740617756        5.1103639349
        2.5755768408        1.6150866511        5.2091046302
        2.6404608747        1.6640334616        5.3026258397
        2.7070157893        1.7213021265        5.3899798328
        2.7749719806        1.7868356490        5.4704424338
        2.8437954405        1.8603262314        5.5433137619
        2.9127944448        1.9414410243        5.6076617915
        2.9812028716        2.0298476830        5.6622627753
        3.0482309493        2.1250267833        5.7058648380
        3.1131335841        2.2260703398        5.7376484742
        3.1753143198        2.3316924406        5.7575689039
        3.2343977809        2.4404926239        5.7662997545
        3.2901711517        2.5512788353        5.7647560513
        3.3423790542        2.6631873815        5.7534822700
        3.3905007188        2.7755046212        5.7323180505
        3.4337067793        2.8873599252        5.7005879443
        3.4710921852        2.9975855181        5.6577037250
        3.5020634472        3.1049004474        5.6037709384
        3.5265969752        3.2082786180        5.5397769448
        3.5451365348        3.3071635585        5.4672273766
        3.5581550990        3.4012879306        5.3874886064
        3.5656827407        3.4901921552        5.3013017512
        1.8831684833        1.8060667527        3.4713013556
        1.8783685296        1.7311608796        3.5679921244
        1.8842802458        1.6683321205        3.6731590562
        1.9001815399        1.6180274172        3.7840707328
        1.9244790373        1.5795466108        3.8984317070
        1.9548765794        1.5511378845        4.0147076200
        1.9889601910        1.5305413837        4.1320827517
        2.0249923398        1.5158370551        4.2501552829
        2.0624665505        1.5061696637        4.3685629245
        2.1020585194        1.5019170404        4.4867365470
        2.1449848875        1.5041945304        4.6038892409
        2.1921683153        1.5140260205        4.7191977641
        2.2437147612        1.5317261892        4.8320096424
        2.2989632251        1.5568601511        4.9419012274
        2.3569680532        1.5887144247        5.0485356154
        2.4170202429        1.6268637236        5.1514364306
        2.4788701590        1.6714110615        5.2498688189
        2.5425914266        1.7227894726        5.3429307584
        2.6082817725        1.7813663428        5.4297698768
        2.6758451547        1.8471986224        5.5097139468
        2.7449522595        1.9200894286        5.5821624306
        2.8151026103        1.9997972422        5.6463037236
        2.8856685780        2.0861231980        5.7009207200
        2.9558965301        2.1787515766        5.7445384345
        3.0249429878        2.2769887787        5.7759209821
        3.0920084989        2.3796742761        5.7946174426
        3.1565082859        2.4853964786        5.8011447080
        3.2181233321        2.5928642465        5.7966073451
        3.2766341860        2.7011268752        5.7819609038
        3.3316302332        2.8094605846        5.7574194092
        3.3823405168        2.9170454661        5.7224416626
        3.4277821896        3.0227629129        5.6763240985
        3.4671725967        3.1253445407        5.6189746837
        3.5002979605        3.2237683515        5.5512941671
        3.5275098511        3.3175267705        5.4748776743
        3.5492892165        3.4064550343        5.3912634799
        3.5656827407        3.4901921552        5.3013017512
        1.8831684833        1.8060667527        3.4713013556
        1.8694380112        1.7373130631        3.5709883133
        1.8670397539        1.6809497896        3.6792217602
        1.8756393031        1.6375896213        3.7930878394
        1.8937927117        1.6065250576        3.9100727931
        1.9189326979        1.5856128543        4.0284944517
        1.9479876021        1.5718287784        4.1475876770
        1.9784612288        1.5624159312        4.2672362752
        2.0093747393        1.5560428303        4.3874720513
        2.0414694058        1.5532547940        4.5079930562
        2.0765266767        1.5559108059        4.6279684248
        2.1162413021        1.5659709384        4.7462299745
        2.1613477928        1.5844266203        4.8616870149
        2.2114664498        1.6110190202        4.9736387440
        2.2656069475        1.6447918978        5.0817441442
        2.3228558695        1.6849456732        5.1856921624
        2.3827617536        1.7313334367        5.2848675239
        2.4452628623        1.7843194008        5.3783095857
        2.5103686366        1.8442559553        5.4649984786
        2.5779181616        1.9110849777        5.5441959991
        2.6475637908        1.9843664424        5.6154960275
        2.7188771834        2.0636085419        5.6784882372
        2.7913896067        2.1485143079        5.7323111359
        2.8645097640        2.2388828054        5.7755350912
        2.9374452678        2.3342644985        5.8065952399
        3.0092830670        2.4337191970        5.8245376984
        3.0792208035        2.5359302748        5.8295261641
        3.1467520401        2.6395878823        5.8226727583
        3.2116020319        2.7436951920        5.8052541170
        3.2734255027        2.8475257584        5.7778688077
        3.3315265801        2.9503017854        5.7401733384
        3.3848947848        3.0509468592        5.6914064567
        3.4325988618        3.1482085818        5.6312967919
        3.4742410478        3.2410796015        5.5606396669
        3.5100595937        3.3291092194        5.4810870226
        3.5405206590        3.4122351245        5.3943242466
        3.5656827407        3.4901921552        5.3013017512
        1.8831684833        1.8060667527        3.4713013556
        1.8606292272        1.7440030197        3.5732482029
        1.8500173413        1.6945817608        3.6838041680
        1.8514730763        1.6586216602        3.7998998529
        1.8638564727        1.6355310318        3.9187959974
        1.8845079319        1.6229785121        4.0386160682
        1.9098112341        1.6173918576        4.1585754389
        1.9364652938        1.6152817898        4.2787831212
        1.9627729688        1.6147088702        4.3996533929
        1.9891426878        1.6159784503        4.5212183909
        2.0174933167        1.6211084680        4.6427546356
        2.0499839519        1.6324465534        4.7629588403
        2.0879004906        1.6513778928        4.8805150780
        2.1313277298        1.6779288568        4.9945910829
        2.1796151123        1.7113576755        5.1048581319
        2.2321078602        1.7511070569        5.2110295652
        2.2885525359        1.7973238827        5.3123344849
        2.3489749673        1.8506111507        5.4074178144
        2.4132934657        1.9113424253        5.4947983021
        2.4810851176        1.9791837756        5.5735142415
        2.5516910618        2.0532111944        5.6433814261
        2.6244910650        2.1324552782        5.7045851396
        2.6990368143        2.2163509771        5.7569023713
        2.7749135915        2.3047059179        5.7992148390
        2.8514985412        2.3972663863        5.8297898302
        2.9278974684        2.4933165904        5.8471911167
        3.0031594808        2.5916808019        5.8511349685
        3.0765731187        2.6910958631        5.8425989318
        3.1477386621        2.7905745074        5.8230620286
        3.2163137392        2.8894140211        5.7934540531
        3.2816626487        2.9868781307        5.7536401439
        3.3427777159        3.0819242891        5.7028430889
        3.3986209142        3.1733175772        5.6406448674
        3.4486298375        3.2600774395        5.5677369775
        3.4929184237        3.3418199034        5.4858032183
        3.5319156802        3.4185833141        5.3966462267
        3.5656827407        3.4901921552        5.3013017512
        1.8831684833        1.8060667527        3.4713013556
        1.8520049039        1.7511769943        3.5747532679
        1.8333109287        1.7091021369        3.6868681469
        1.8277592097        1.6808799832        3.8044563587
        1.8346526405        1.6661325063        3.9245603157
        1.8514406444        1.6625414080        4.0450734051
        1.8741429732        1.6662328387        4.1651135180
        1.8986973669        1.6731414178        4.2849216590
        1.9225136599        1.6806425618        4.4052388149
        1.9452855609        1.6884413126        4.5264686339
        1.9685935570        1.6981748163        4.6481485213
        1.9946580706        1.7120800723        4.7690746527
        2.0251293983        1.7316981605        4.8879366925
        2.0606446909        1.7574533701        5.0039049969
        2.1012145039        1.7891957163        5.1166493523
        2.1468846595        1.8270519487        5.2257619261
        2.1980275184        1.8717803336        5.3301065916
        2.2550581014        1.9243406632        5.4277363649
        2.3179171628        1.9850975364        5.5165689812
        2.3858432548        2.0533714944        5.5953434309
        2.4576533678        2.1277207330        5.6640716639
        2.5322774920        2.2067001578        5.7235510431
        2.6090819605        2.2894651023        5.7742607440
        2.6877392940        2.3757695260        5.8155061614
        2.7678281139        2.4654560395        5.8455245939
        2.8485740550        2.5579479614        5.8625122879
        2.9289718938        2.6521828997        5.8657813411
        3.0081388217        2.7469749286        5.8561317040
        3.0855198389        2.8413971947        5.8351481912
        3.1607208417        2.9348019347        5.8040014443
        3.2331347689        3.0264955409        5.7627275578
        3.3017679177        3.1154596242        5.7105520639
        3.3655115633        3.2004785753        5.6469500986
        3.4236654652        3.2806136836        5.5725284923
        3.4762175309        3.3555592369        5.4889864509
        3.5235394902        3.4254504457        5.3982105946
        3.5656827407        3.4901921552        5.3013017512
        1.8831684833        1.8060667527        3.4713013556
        1.8436269564        1.7587783486        3.5754910631
        1.8170160685        1.7243810964        3.6883876265
        1.8045565721        1.7041107998        3.8067250647
        1.8060857708        1.6978503966        3.9273544261
        1.8193355516        1.7034437215        4.0479288000
        1.8401548687        1.7169270019        4.1674082739
        1.8638218799        1.7338180852        4.2860715044
        1.8867691816        1.7507906750        4.4049105408
        1.9076972582        1.7667194286        4.5247070809
        1.9274706774        1.7825113319        4.6453742524
        1.9480447633        1.8000018086        4.7659875761
        1.9712809289        1.8208011179        4.8853923966
        1.9984216434        1.8458638964        5.0027986866
        2.0303404616        1.8758605869        5.1177900444
        2.0680365775        1.9117579727        5.2297082311
        2.1127317947        1.9549160268        5.3369853613
        2.1653902511        2.0065191344        5.4371330210
        2.2260699287        2.0668039052        5.5275914434
        2.2937046770        2.1347583546        5.6068855932
        2.3665577611        2.2085809368        5.6751782403
        2.4430193068        2.2865581166        5.7337043959
        2.5221460112        2.3676954682        5.7834415942
        2.6035880345        2.4516815853        5.8240124127
        2.6870760278        2.5383371744        5.8536767445
        2.7719769771        2.6270938969        5.8704293741
        2.8572914472        2.7169362641        5.8733427449
        2.9420125672        2.8067645561        5.8631035045
        3.0254324595        2.8957530606        5.8413500018
        3.1070714925        2.9833332618        5.8093893521
        3.1863179735        3.0688496500        5.7673565557
        3.2621898302        3.1512963673        5.7144786078
        3.3335349521        3.2294816982        5.6501667890
        3.3995443819        3.3025278288        5.5749753929
        3.4600854429        3.3702198271        5.4906096130
        3.5154557575        3.4327834929        5.3990045620
        3.5656827407        3.4901921552        5.3013017512
        1.8831684833        1.8060667527        3.4713013556
        1.8355562679        1.7667481366        3.5754553481
        1.8012280115        1.7402879328        3.6883487695
        1.7819187488        1.7280631917        3.8066907325
        1.7780203374        1.7302010500        3.9271899402
        1.7876488548        1.7447730171        4.0472844102
        1.8066358654        1.7678608700        4.1657545090
        1.8297223206        1.7946989105        4.2828486080
        1.8523746699        1.8213101400        4.3997354289
        1.8721861757        1.8456879742        4.5175489165
        1.8891368952        1.8679200440        4.6366227745
        1.9048004226        1.8894103183        4.7563857885
        1.9212477796        1.9119139528        4.8758604096
        1.9404125346        1.9370416995        4.9942131123
        1.9641090958        1.9663352416        5.1107915342
        1.9942744578        2.0014791187        5.2245916516
        2.0328643256        2.0441546790        5.3336943914
        2.0812550155        2.0954663023        5.4353463890
        2.1395658985        2.1553616392        5.5268615898
        2.2064987220        2.2225670588        5.6067789025
        2.2799215909        2.2951740022        5.6753721811
        2.3578317174        2.3714852895        5.7340187593
        2.4390321230        2.4505274564        5.7838099378
        2.5231073844        2.5319280383        5.8244230567
        2.6098550181        2.6153799438        5.8541194660
        2.6987257136        2.7002109588        5.8708720924
        2.7887241865        2.7854047572        5.8737402500
        2.8787500908        2.8699641769        5.8634214185
        2.9679623512        2.9531977121        5.8415821576
        3.0557845270        3.0346253465        5.8095563168
        3.1415748134        3.1136143345        5.7674885070
        3.2243537053        3.1891588864        5.7145960601
        3.3029442297        3.2601012872        5.6502719188
        3.3764563562        3.3256481120        5.5750575133
        3.4446468614        3.3856873303        5.4906584964
        3.5077261137        3.4405259893        5.3990215045
        3.5656827407        3.4901921552        5.3013017512
        1.8831684833        1.8060667527        3.4713013556
        1.8278524516        1.7750256556        3.5746461642
        1.7860439144        1.7566939089        3.6867500865
        1.7599088564        1.7525025953        3.8043539448
        1.7503328350        1.7627443383        3.9240930662
        1.7558231259        1.7856961299        4.0432523972
        1.7722776387        1.8175379329        4.1604570209
        1.7940223139        1.8533274874        4.2758959674
        1.8156662749        1.8885656497        4.3908496717
        1.8337736715        1.9205024431        4.5067413306
        1.8475198545        1.9485648060        4.6242844064
        1.8582225096        1.9739074641        4.7432193637
        1.8683290000        1.9985934650        4.8626563772
        1.8805896676        2.0249466058        4.9815658418
        1.8977271472        2.0552515645        5.0989038846
        1.9223612917        2.0915939631        5.2132810790
        1.9567619438        2.1355722978        5.3226002981
        2.0023005343        2.1878810145        5.4242146492
        2.0589280635        2.2480540569        5.5157325935
        2.1251608061        2.3146587385        5.5959688373
        2.1987357952        2.3859149263        5.6652737203
        2.2775761731        2.4603657815        5.7248632925
        2.3604452860        2.5371692460        5.7755490920
        2.4469069590        2.6158808977        5.8167953423
        2.5367489136        2.6960012241        5.8468385154
        2.6294080401        2.7767129871        5.8637996249
        2.7238480593        2.8570108344        5.8669362222
        2.8188878803        2.9360389274        5.8570637695
        2.9135822826        3.0132620366        5.8358383433
        3.0072658414        3.0882764308        5.8045043858
        3.0992522426        3.1604454648        5.7631269075
        3.1885537017        3.2287541012        5.7109058442
        3.2739795802        3.2920971366        5.6472646667
        3.3545827127        3.3497927346        5.5727731960
        3.4300215501        3.4018413891        5.4891318894
        3.5004096668        3.4486184822        5.3982610306
        3.5656827407        3.4901921552        5.3013017512
        1.8831684833        1.8060667527        3.4713013556
        1.8205735732        1.7835489571        3.5730698596
        1.7715647845        1.7734746035        3.6836025226
        1.7386143845        1.7772222677        3.7997301210
        1.7229681234        1.7951266817        3.9180970097
        1.7234420492        1.8255826267        4.0359254152
        1.7360179379        1.8648635350        4.1517483175
        1.7547345082        1.9079542267        4.2656993759
        1.7735572108        1.9500459121        4.3791092518
        1.7882870328        1.9879424724        4.4935840997
        1.7975873243        2.0207394510        4.6100926283
        1.8028111475        2.0496212887        4.7285562345
        1.8070156162        2.0770926663        4.8480360090
        1.8138532648        2.1061115632        4.9671767165
        1.8268068861        2.1394183525        5.0844669029
        1.8487822789        2.1790950988        5.1981740918
        1.8818154296        2.2262795281        5.3062193190
        1.9267607538        2.2810314481        5.4063713033
        1.9831112171        2.3424438187        5.4968367180
        2.0492148184        2.4090410197        5.5768676278
        2.1229383959        2.4793221663        5.6468403692
        2.2024685161        2.5521650883        5.7075941017
        2.2867750710        2.6268738276        5.7594176714
        2.3754793408        2.7029088989        5.8014323167
        2.4683060640        2.7795767095        5.8318865938
        2.5645912213        2.8559603395        5.8491937657
        2.6632155930        2.9311340103        5.8529404824
        2.7629351812        3.0044290636        5.8440860315
        2.8627410266        3.0754635987        5.8241931391
        2.9619005306        3.1438729026        5.7942981483
        3.0596776492        3.2089838894        5.7543156815
        3.1550658412        3.2697727927        5.7034362771
        3.2468665375        3.3252158313        5.6411659084
        3.3340948036        3.3747712762        5.5681391855
        3.4163232924        3.4185566478        5.4860415881
        3.4935625306        3.4569990063        5.3967289916
        3.5656827407        3.4901921552        5.3013017512
        1.8831684833        1.8060667527        3.4713013556
        1.8137758189        1.7922553038        3.5707390617
        1.7578967517        1.7905114794        3.6789295345
        1.7181591705        1.8020505807        3.7928491577
        1.6959877588        1.8271091140        3.9092374744
        1.6903670467        1.8640858178        4.0253566825
        1.6973468668        1.9093282456        4.1397297566
        1.7108382460        1.9578767619        4.2524531356
        1.7244875621        2.0048995819        4.3648373607