VARIABLES = X, Y, Z
ZONE I=       37  J=       73  F=POINT
        1.8561190582        1.7459617473        0.6534695293
        1.9090086492        1.6764105498        0.7355600265
        1.9541333978        1.6015381355        0.8201089286
        1.9985190150        1.5273637444        0.9070134260
        2.0499323616        1.4615673001        0.9954771644
        2.1135574809        1.4105717759        1.0841622989
        2.1902792493        1.3774864386        1.1715434071
        2.2772432099        1.3616797501        1.2563577619
        2.3700329205        1.3598866014        1.3379736406
        2.4649996444        1.3680843981        1.4164768178
        2.5604522462        1.3831942775        1.4923793656
        2.6563458516        1.4039582209        1.5660661850
        2.7530960564        1.4308545684        1.6372825853
        2.8505380263        1.4653474831        1.7049782808
        2.9476881716        1.5089495650        1.7676174399
        3.0432370314        1.5625117478        1.8237657792
        3.1361891775        1.6259502754        1.8725853253
        3.2260982149        1.6984002419        1.9139410534
        3.3127907202        1.7786281885        1.9480992595
        3.3959090458        1.8654731076        1.9752704383
        3.4746858154        1.9581163442        1.9953207217
        3.5480887673        2.0560864433        2.0078080864
        3.6151337839        2.1590420002        2.0122410712
        3.6750607505        2.2664825593        2.0083170584
        3.7272591616        2.3775606791        1.9959713825
        3.7711056242        2.4910957745        1.9752700914
        3.8059632732        2.6057663814        1.9463197657
        3.8314139522        2.7203569714        1.9093250503
        3.8475241701        2.8339155051        1.8647473061
        3.8548504400        2.9457418759        1.8133793832
        3.8540780878        3.0552283167        1.7561923873
        3.8455100080        3.1616504059        1.6940081470
        3.8287961517        3.2640267434        1.6272339657
        3.8031527821        3.3611294236        1.5558908775
        3.7679591651        3.4516604735        1.4799547581
        3.7233240517        3.5345361808        1.3997749944
        3.6702236268        3.6091615166        1.3162520812
        1.8561190582        1.7459617473        0.6534695293
        1.9057513856        1.6836011187        0.7427228599
        1.9467609820        1.6153535581        0.8343043806
        1.9857094462        1.5467394034        0.9281510312
        2.0304751082        1.4852757022        1.0234675005
        2.0868390444        1.4375393224        1.1188936594
        2.1564494156        1.4069716151        1.2128626160
        2.2370262670        1.3932949000        1.3040439109
        2.3243426387        1.3935226597        1.3917123791
        2.4145955111        1.4038071230        1.4758572226
        2.5058056196        1.4211408984        1.5569279315
        2.5977318458        1.4442299660        1.6353065819
        2.6907952016        1.4734091336        1.7107860866
        2.7849948396        1.5099307483        1.7823681361
        2.8795338069        1.5551189831        1.8485144313
        2.9731839161        1.6097630608        1.9076969222
        3.0648800039        1.6738855333        1.9589017103
        3.1540049060        1.7468292626        2.0017907161
        3.2402191583        1.8275257457        2.0364778570
        3.3231051145        1.9148094399        2.0631383903
        3.4019889752        2.0076711935        2.0817450893
        3.4760576928        2.1053738588        2.0920725039
        3.5445785007        2.2073969037        2.0938743837
        3.6069539321        2.3132457052        2.0870216514
        3.6625548376        2.4222325819        2.0714770878
        3.7105444544        2.5333618431        2.0471800037
        3.7499609867        2.6453979280        2.0140266855
        3.7800949123        2.7570844703        1.9720475232
        3.8008856269        2.8673809605        1.9216718665
        3.8129664846        2.9755627131        1.8638343485
        3.8172256916        3.0811098538        1.7997580528
        3.8141457687        3.1834459255        1.7305062962
        3.8034060946        3.2816923153        1.6566153464
        3.7840779303        3.3746127209        1.5781030863
        3.7553115980        3.4608219949        1.4948800010
        3.7170429528        3.5391791748        1.4072712271
        3.6702236268        3.6091615166        1.3162520812
        1.8561190582        1.7459617473        0.6534695293
        1.9021503487        1.6912721486        0.7492035698
        1.9388206199        1.6301813596        0.8471124345
        1.9721443258        1.5676581367        0.9471796864
        2.0100283707        1.5110124254        1.0486331647
        2.0588157132        1.4669823384        1.1501204984
        2.1209406862        1.4394010305        1.2500548504
        2.1947513259        1.4284145358        1.3470364294
        2.2762537001        1.4313432234        1.4402204706
        2.3614982174        1.4444786273        1.5294630424
        2.4481901849        1.4648053248        1.6151259145
        2.5358511522        1.4909103641        1.6975925550
        2.6248799464        1.5229260268        1.7767437284
        2.7154473002        1.5618559289        1.8517039185
        2.8069951566        1.6088041397        1.9210181632
        2.8984655048        1.6644683511        1.9831410834
        2.9888194642        1.7289728557        2.0369191307
        3.0773253944        1.8019219106        2.0817786512
        3.1634495440        1.8825317818        2.1175696776
        3.2465884371        1.9697808987        2.1442657823
        3.3259782244        2.0625790625        2.1617842409
        3.4008675513        2.1599390034        2.1700303181
        3.4707292776        2.2610795165        2.1690398075
        3.5352286809        2.3653848093        2.1590063236
        3.5939182246        2.4722255622        2.1401134704
        3.6459441390        2.5807584551        2.1123203310
        3.6901108045        2.6898623375        2.0753493651
        3.7253659283        2.7982864384        2.0289824590
        3.7513744733        2.9049265087        1.9734892196
        3.7686986671        3.0090289027        1.9098401857
        3.7783606602        3.1101503409        1.8394729674
        3.7810492862        3.2078688073        1.7637189140
        3.7765497763        3.3014353614        1.6832928021
        3.7638491979        3.3896331561        1.5982401947
        3.7418784471        3.4709992441        1.5084040261
        3.7103709683        3.5443275025        1.4140641901
        3.6702236268        3.6091615166        1.3162520812
        1.8561190582        1.7459617473        0.6534695293
        1.8982329325        1.6993641292        0.7549551110
        1.9303786956        1.6459097244        0.8584436698
        1.9579506286        1.5899764782        0.9639703998
        1.9888003817        1.5386321597        1.0708051930
        2.0297873608        1.4987840699        1.1776270806
        2.0841412846        1.4747052325        1.2828423847
        2.1508809332        1.4670097449        1.3849755194
        2.2262859237        1.4733183683        1.4830415629
        2.3062747942        1.4899963276        1.5767443820
        2.3882247636        1.5139356368        1.6663530148
        2.4713916614        1.5435572547        1.7522619321
        2.5561202628        1.5788059028        1.8344568085
        2.6427280160        1.6204846595        1.9122074770
        2.7308926427        1.6694998281        1.9841804748
        2.8197642390        1.7264154785        2.0488790554
        2.9084183627        1.7913690240        2.1050971354
        2.9961258831        1.8641557583        2.1520963771
        3.0822486497        1.9442874121        2.1894637161
        3.1659963475        2.0309892676        2.2168682810
        3.2463970149        2.1232335765        2.2339866434
        3.3225681484        2.2198888433        2.2406645125
        3.3940177701        2.3199310738        2.2371187407
        3.4606213134        2.4225616338        2.2239074466
        3.5222087788        2.5271220182        2.2015958648
        3.5780959388        2.6328630964        2.1703539074
        3.6270200325        2.7387687876        2.1298524240
        3.6676416180        2.8436133341        2.0796283606
        3.6992808313        2.9462442598        2.0197001156
        3.7222957942        3.0458759032        1.9509594557
        3.7377377327        3.1421313660        1.8749879226
        3.7464791897        3.2347457925        1.7933804471
        3.7484591287        3.3231215671        1.7070664836
        3.7426432282        3.4060882517        1.6161536873
        3.7277712886        3.4821194810        1.5204254144
        3.7033601820        3.5499423639        1.4201020345
        3.6702236268        3.6091615166        1.3162520812
        1.8561190582        1.7459617473        0.6534695293
        1.8940271957        1.7078135805        0.7599361842
        1.9214992655        1.6624173486        0.8682209348
        1.9432489926        1.6135350319        0.9784137914
        1.9669893888        1.5679622078        1.0898421339
        2.0000387878        1.5327712481        1.2012347810
        2.0464139101        1.5126927993        1.3110010522
        2.1058328048        1.5088121699        1.4175888108
        2.1748851609        1.5190060341        1.5198725306
        2.2493826124        1.5396298475        1.6174165413
        2.3263865484        1.5674153735        1.7104207220
        2.4048917206        1.6006280710        1.7993028151
        2.4851818087        1.6391311418        1.8841288587
        2.5676906977        1.6836763466        1.9642518829
        2.6522789029        1.7350712065        2.0383983685
        2.7382577033        1.7937235833        2.1051182652
        2.8248230840        1.8596424604        2.1632466971
        2.9113358448        1.9326313773        2.2120453486
        2.9971977255        2.0123753022        2.2509897039
        3.0815559313        2.0983445976        2.2794873476
        3.1632510835        2.1896767398        2.2968655689
        3.2411568991        2.2852309924        2.3026960579
        3.3146248166        2.3838327578        2.2971677596
        3.3835787111        2.4845188048        2.2811088972
        3.4480874167        2.5865666827        2.2555256658
        3.5077347288        2.6892779566        2.2209604657
        3.5613539909        2.7917196753        2.1771934292
        3.6074402855        2.8926907165        2.1235905422
        3.6449821284        2.9909934225        2.0598864863
        3.6740508110        3.0858038944        1.9868016569
        3.6956201721        3.1768008457        1.9059779036
        3.7106888434        3.2638753247        1.8192416062
        3.7193632004        3.3465960583        1.7277524095
        3.7206396443        3.4238624449        1.6317102278
        3.7131064566        3.4941023904        1.5308541630
        3.6960654132        3.5559813628        1.4253387352
        3.6702236268        3.6091615166        1.3162520812
        1.8561190582        1.7459617473        0.6534695293
        1.8895616412        1.7165535488        0.7641114819
        1.9122430699        1.6795739224        0.8763796782
        1.9281507703        1.6381575259        0.9904203855
        1.9447774126        1.5987990400        1.1056304676
        1.9698292082        1.5687113816        1.2208034018
        2.0080807585        1.5530628721        1.3343631409
        2.0599608602        1.5533754846        1.4446932333
        2.1223992575        1.5677194496        1.5505527245
        2.1911318478        1.5923690934        1.6514109475
        2.2629366258        1.6238660176        1.7474464746
        2.3365867545        1.6603808849        1.8391122646
        2.4123416273        1.7018515333        1.9264922485
        2.4907560502        1.7491721259        2.0088838955
        2.5718192857        1.8031875284        2.0849129820
        2.6549014685        1.8641514598        2.1530850109
        2.7392247900        1.9318035631        2.2123291882
        2.8242252635        2.0057378569        2.2621067722
        2.9094416029        2.0856196866        2.3020435898
        2.9941260029        2.1710748305        2.3314798382
        3.0770721049        2.2614347693        2.3494206599
        3.1569332555        2.3556519301        2.3550159310
        3.2327925099        2.4525098883        2.3481919998
        3.3044448168        2.5509487240        2.3298540219
        3.3720655418        2.6502011595        2.3013881971
        3.4354947510        2.7496105576        2.2637848341
        3.4937617264        2.8483144892        2.2170724863
        3.5453269769        2.9451301485        2.1605554558
        3.5889197565        3.0388105326        2.0937095574
        3.6243024214        3.1284852855        2.0170329780
        3.6522895350        3.2138779559        1.9321523863
        3.6739328969        3.2950303955        1.8410754919
        3.6894892389        3.3716847182        1.7451849037
        3.6980195251        3.4428275917        1.6447924887
        3.6980036761        3.5068603952        1.5396121755
        3.6885437020        3.5623987733        1.4297344165
        3.6702236268        3.6091615166        1.3162520812
        1.8561190582        1.7459617473        0.6534695293
        1.8848650511        1.7255141557        0.7674518808
        1.9026667881        1.6972408282        0.8828681326
        1.9127556818        1.6636507232        0.9999206118
        1.9223256273        1.6309082675        1.1180843411
        1.9393862234        1.6063203812        1.2362301310
        1.9694198149        1.5954407877        1.3528123373
        2.0135619090        1.6001760413        1.4661750296
        2.0691079114        1.6187449368        1.5750036115
        2.1317521665        1.6473180972        1.6787292219
        2.1980278277        1.6822684743        1.7775592117
        2.2665393705        1.7217517314        1.8719866516
        2.3375895342        1.7659087089        1.9620384874
        2.4119084801        1.8159140789        2.0468001862
        2.4896099902        1.8727435385        2.1246068732
        2.5700349641        1.9365023709        2.1937816441
        2.6522885965        2.0065708819        2.2533428071
        2.7357620524        2.0821811672        2.3031061437
        2.8201137716        2.1628223973        2.3431105047
        2.9048083344        2.2481694708        2.3728875501
        2.9887648597        2.3377179496        2.3912616353
        3.0705479992        2.4305506236        2.3969306311
        3.1489829100        2.5254806243        2.3893902033
        3.2236257298        2.6214211292        2.3694148600
        3.2946078506        2.7176064792        2.3386279624
        3.3619344203        2.8134420096        2.2984423617
        3.4248484353        2.9081389992        2.2492072559
        3.4818722342        3.0005299282        2.1902666694
        3.5315710684        3.0893144193        2.1209000357
        3.5734265819        3.1735702605        2.0413788496
        3.6080487800        3.2530578932        1.9532625152
        3.6364719427        3.3279619725        1.8586834574
        3.6590641891        3.3981961393        1.7592195125
        3.6749644364        3.4628438352        1.6553002011
        3.6825848402        3.5202990949        1.5466337297
        3.6808537850        3.5691458387        1.4332556333
        3.6702236268        3.6091615166        1.3162520812
        1.8561190582        1.7459617473        0.6534695293
        1.8799663791        1.7346232004        0.7699345819
        1.8928225888        1.7152720974        0.8876473648
        1.8971502428        1.6898052747        1.0068645550
        1.8997716008        1.6640273116        1.1271447600
        1.9089040430        1.6452753372        1.2474468978
        1.9306697893        1.6394175581        1.3662744722
        1.9668985338        1.6487003593        1.4819619901
        2.0152830969        1.6714944537        1.5931600230
        2.0715199426        1.7039160674        1.6992989110
        2.1319322932        1.7422398331        1.8006351545
        2.1949897561        1.7846655939        1.8976901790
        2.2610913120        1.8315652443        1.9903814483
        2.3312141551        1.8843927973        2.0774921224
        2.4056501985        1.9442415298        2.1569567678
        2.4836949573        2.0110583980        2.2268201433
        2.5642300700        2.0838583964        2.2861490183
        2.6464459761        2.1614965427        2.3351603763
        2.7300023363        2.2432489346        2.3744422910
        2.8145698803        2.3287836512        2.4039047723
        2.8993057527        2.4177055967        2.4223591557
        2.9828453758        2.5091993944        2.4281307353
        3.0638601810        2.6021174533        2.4202444180
        3.1416555117        2.6953847135        2.3992111902
        3.2162123271        2.7882816060        2.3667373228
        3.2875838490        2.8803055680        2.3245581490
        3.3551805872        2.9707524677        2.2733343070
        3.4176317749        3.0584705752        2.2125113280
        3.4734266049        3.1421068641        2.1412474990
        3.5218243193        3.2206900364        2.0596222542
        3.5632206150        3.2940160183        1.9691053661
        3.5985748812        3.3624026904        1.8719001209
        3.6283159620        3.4259240306        1.7697360098
        3.6516557776        3.4837607740        1.6631513178
        3.6669729180        3.5343178220        1.5518659159
        3.6730555700        3.5761711001        1.4358756053
        3.6702236268        3.6091615166        1.3162520812
        1.8561190582        1.7459617473        0.6534695293
        1.8748947029        1.7438068110        0.7715432001
        1.8827580166        1.7335156532        0.8906912046
        1.8814070611        1.7163974655        1.0112214996
        1.8772282993        1.6978696791        1.1327784567
        1.8785446356        1.6852272921        1.2544173349
        1.8920380714        1.6845781729        1.3747091455
        1.9202205660        1.6984869543        1.4920042599
        1.9612351120        1.7255363578        1.6049357348
        2.0108496991        1.7619029644        1.7129253692
        2.0652131940        1.8038600454        1.8162457137
        2.1226520377        1.8496594810        1.9154118726
        2.1836453190        1.8998044760        2.0102279693
        2.2494381229        1.9558730348        2.0992139026
        2.3205646743        2.0189555385        2.1799604030
        2.3963366966        2.0888236597        2.2502598970
        2.4754083964        2.1642152657        2.3091901044
        2.5566767361        2.2437385438        2.3572839415
        2.6396658735        2.3265475384        2.3956068933
        2.7241584289        2.4123106791        2.4244533993
        2.8095615877        2.5006811061        2.4427221042
        2.8946904816        2.5908704836        2.4485093234
        2.9781911519        2.6817309335        2.4404690673
        3.0591781369        2.7722061849        2.4188427709
        3.1374408818        2.8616527074        2.3853150635
        3.2129818160        2.9496826216        2.3418115093
        3.2853031532        3.0356810044        2.2892262374
        3.3531417510        3.1185101625        2.2271178194
        3.4149757438        3.1967711787        2.1545930936
        3.4699102868        3.2694585039        2.0716007303
        3.5181433216        3.3364114272        1.9795262001
        3.5605192468        3.3980706542        1.8805973517
        3.5974741054        3.4546499216        1.7766411826
        3.6282742314        3.5054188512        1.6682831683
        3.6512909692        3.5488103066        1.5552690321
        3.6652096164        3.5834207583        1.4375744068
        3.6702236268        3.6091615166        1.3162520812
        1.8561190582        1.7459617473        0.6534695293
        1.8696792355        1.7529901395        0.7722678056
        1.8725162348        1.7518148377        0.8919860700
        1.8655850295        1.7431917390        1.0129793151
        1.8547845752        1.7321298928        1.1349766411
        1.8484402927        1.7258109037        1.2571343354
        1.8537067629        1.7305135519        1.3781056011
        1.8737714624        1.7491217016        1.4962721126
        1.9073095598        1.7805271342        1.6102396741
        1.9502705493        1.8211112885        1.7193659380
        1.9986809765        1.8672360403        1.8238542586
        2.0506751044        1.9171544576        1.9241597211
        2.1066982290        1.9713064875        2.0200219427
        2.1681730664        2.0311493887        2.1098699272
        2.2358802533        2.0976096234        2.1911810456
        2.3092422975        2.1702931432        2.2616576930
        2.3867957895        2.2478249087        2.3203756231
        2.4671835381        2.3287817850        2.3679875169
        2.5497353729        2.4123445874        2.4057646850
        2.6342396308        2.4982068749        2.4341971243
        2.7202858254        2.5859986361        2.4522682329
        2.8068901821        2.6748672325        2.4580098406
        2.8927605003        2.7636150688        2.4499129826
        2.9768992255        2.8512065460        2.4280636305
        3.0589128150        2.9370947319        2.3940884259
        3.1386913415        3.0210118628        2.3499693761
        3.2157542892        3.1024188312        2.2967127921
        3.2889213430        3.1801823087        2.2339607279
        3.3566995935        3.2528707528        2.1608265328
        3.4181040561        3.3194733426        2.0772040712
        3.4731658155        3.3798903383        1.9844197422
        3.5225900216        3.4346733382        1.8846872955
        3.5667697344        3.4841460211        1.7798711767
        3.6049991601        3.5276508758        1.6706534867
        3.6356612354        3.5636654291        1.5568169190
        3.6573766269        3.5908390654        1.4383391086
        3.6702236268        3.6091615166        1.3162520812
        1.8561190582        1.7459617473        0.6534695293
        1.8643493887        1.7620980917        0.7721049195
        1.8621366253        1.7700102065        0.8915307037
        1.8497303964        1.7699438709        1.0121437188
        1.8325068419        1.7664885493        1.1337537379
        1.8186966354        1.7666505063        1.2556185023
        1.8158353928        1.7768201839        1.3764828921
        1.8277793681        1.8002097943        1.4947668948
        1.8538380702        1.8361166868        1.6090236889
        1.8902911382        1.8812537930        1.7184677932
        1.9331253555        1.9321262684        1.8231256084
        1.9802191881        1.9868992361        1.9233344814
        2.0317925471        2.0457367081        2.0188501419
        2.0892375863        2.1097486069        2.1082534575
        2.1534849479        2.1795856858        2.1892274577
        2.2241379732        2.2547515196        2.2596154287
        2.2997967124        2.3339490996        2.3184908624
        2.3790209792        2.4159241802        2.3663748254
        2.4610101552        2.4999883992        2.4043720087
        2.5455053960        2.5858421892        2.4328781363
        2.6321802989        2.6730073934        2.4509013335
        2.7201948488        2.7604967531        2.4565771581
        2.8083353592        2.8470501590        2.4484910584
        2.8955470295        2.9316794440        2.4267473433
        2.9812835340        3.0139527118        2.3929161082
        3.0652976704        3.0937048163        2.3489066099
        3.1470716110        3.1704352104        2.2956984411
        3.2254763472        3.2429971164        2.2329681839
        3.2990683842        3.3099487607        2.1598864543
        3.3668243625        3.3703176840        2.0763736332
        3.4286429523        3.4240898226        1.9837312780
        3.4850774490        3.4719116250        1.8841245826
        3.5364347220        3.5141780993        1.7793932548
        3.5820078445        3.5502835925        1.6702412103
        3.6202042852        3.5787680467        1.5564972142
        3.6496169543        3.5983687460        1.4381638737
        3.6702236268        3.6091615166        1.3162520812
        1.8561190582        1.7459617473        0.6534695293
        1.8589348824        1.7710560821        0.7710574681
        1.8516557268        1.7879415520        0.8893358391
        1.8338786698        1.7964046791        1.0087374418
        1.8104417237        1.8006174214        1.1291460951
        1.7893958551        1.8073639160        1.2499171017
        1.7785625635        1.8230955693        1.3698916868
        1.7824459568        1.8513518522        1.4875333179
        1.8010841417        1.8918958294        1.6013230194
        1.8312481645        1.9418446487        1.7102689049
        1.8689970867        1.9978577371        1.8141337345
        1.9119125541        2.0579241303        1.9130942058
        1.9597853064        2.1217824256        2.0069981577
        2.0137131629        2.1900763210        2.0947914189
        2.0746042659        2.2631714984        2.1746353352
        2.1422594149        2.3405747022        2.2447022725
        2.2155274056        2.4212142987        2.3040458026
        2.2931192660        2.5040977376        2.3528221441
        2.3742543076        2.5886575816        2.3916423524
        2.4586345245        2.6745195525        2.4205685988
        2.5459244450        2.7610223239        2.4386062753
        2.6353266527        2.8470350865        2.4441664135
        2.7256657774        2.9312883424        2.4361664252
        2.8158519796        3.0128999812        2.4148759480
        2.9052220333        3.0915617683        2.3817917531
        2.9933959935        3.1671634076        2.3386174054
        3.0797902317        3.2391834851        2.2861729983
        3.1633007261        3.3064437634        2.2241277764
        3.2425408966        3.3675294442        2.1517626120
        3.3164856114        3.4215631811        2.0691033726
        3.3849314081        3.4686423453        1.9774579641
        3.4482742105        3.5094839949        1.8789078033
        3.5067002262        3.5445082498        1.7752068624
        3.5594745207        3.5731392139        1.6670469752
        3.6050381910        3.5939998762        1.5543115107
        3.6419901274        3.6059514452        1.4370500048
        3.6702236268        3.6091615166        1.3162520812
        1.8561190582        1.7459617473        0.6534695293
        1.8534658863        1.7797907997        0.7691346972
        1.8411084703        1.8054501006        0.8854238118
        1.8180572941        1.8223241757        1.0027993185
        1.7886195824        1.8341847984        1.1212105770
        1.7606003837        1.8475658503        1.2401028222
        1.7420097451        1.8689360095        1.3584145796
        1.7379489638        1.9021389767        1.4746622660
        1.7492351841        1.9474095104        1.5872590901
        1.7732628655        2.0022781330        1.6949908278
        1.8062857800        2.0635392793        1.7973248087
        1.8455999098        2.1289571923        1.8942606991
        1.8904315854        2.1978048435        1.9857751492
        1.9413677670        2.2702738679        2.0712764813
        1.9991225019        2.3465222908        2.1495198605
        2.0636690857        2.4261549448        2.2190661706
        2.1342345998        2.5083673449        2.2788994135
        2.2098772596        2.5923778228        2.3286669361
        2.2899794637        2.6776243887        2.3683313200
        2.3742252895        2.7635567934        2.3975557376
        2.4621886786        2.8493145516        2.4154131780
        2.5530096841        2.9337009608        2.4207530386
        2.6454958077        3.0155478554        2.4129754851
        2.7385343095        3.0941412809        2.3925610009
        2.8313887247        3.1692706681        2.3608552648
        2.9235740012        3.2407970013        2.3192195474
        3.0144353676        3.3081084983        2.2682135416
        3.1028758385        3.3699930160        2.2074888698
        3.1875644614        3.4251211164        2.1364987463
        3.2674956911        3.4727751271        2.0554423297
        3.3423860052        3.5131813827        1.9656503479
        3.4124721536        3.5470907513        1.8690802069
        3.4777946568        3.5748973624        1.7673439239
        3.5375692121        3.5960368478        1.6610932591
        3.5902777312        3.6092404219        1.5502754093
        3.6345543976        3.6135282005        1.4350059425
        3.6702236268        3.6091615166        1.3162520812
        1.8561190582        1.7459617473        0.6534695293
        1.8479731802        1.7882309709        0.7663520523
        1.8305296533        1.8223808169        0.8798281337
        1.8022890277        1.8474560610        0.9943833254
        1.7670589140        1.8668613148        1.1100229665
        1.7323570903        1.8868723287        1.2262718102
        1.7062880203        1.9139388439        1.3421633831
        1.6944635614        1.9521636774        1.4562816093
        1.6984615215        2.0022095264        1.5670033626