VARIABLES = X, Y, Z
ZONE I=       37  J=       73  F=POINT
        1.8442099479        1.7658086393        3.0514713857
        1.8888750730        1.6753457216        3.1269832537
        1.9418714843        1.5958579512        3.2094054185
        2.0014699923        1.5273046731        3.2971432732
        2.0661454335        1.4694680860        3.3889140426
        2.1348778061        1.4224583178        3.4837021397
        2.2070630063        1.3867016668        3.5805669622
        2.2821494053        1.3623522171        3.6785473763
        2.3593126312        1.3485558678        3.7767924197
        2.4374425266        1.3432039923        3.8748173693
        2.5154695933        1.3435438127        3.9726324601
        2.5927893281        1.3474226501        4.0705525667
        2.6694561660        1.3544496664        4.1687334494
        2.7459800067        1.3663318657        4.2667109371
        2.8228446818        1.3861251153        4.3632574868
        2.9000636946        1.4168123200        4.4566743754
        2.9770518423        1.4600210726        4.5453460943
        3.0528586221        1.5155599024        4.6282101417
        3.1265616154        1.5819016942        4.7048656590
        3.1975365885        1.6571700390        4.7753012189
        3.2654500607        1.7399673542        4.8394734834
        3.3300424904        1.8296190440        4.8970358361
        3.3909094882        1.9258702140        4.9473669238
        3.4474497080        2.0284095235        4.9898123549
        3.4989849028        2.1365996718        5.0239115876
        3.5449164129        2.2495307539        5.0494314713
        3.5847764113        2.3662317712        5.0662102232
        3.6181519724        2.4857956732        5.0739765613
        3.6445899855        2.6073173745        5.0723236313
        3.6636136283        2.7297503754        5.0608847731
        3.6748772515        2.8518662923        5.0395910718
        3.6783484081        2.9723960497        5.0088205709
        3.6743560991        3.0902510632        4.9693241916
        3.6634314145        3.2046342892        4.9219694950
        3.6460242422        3.3149318792        4.8674624589
        3.6222820394        3.4204546395        4.8062102631
        3.5920419947        3.5202238848        4.7383866652
        1.8442099479        1.7658086393        3.0514713857
        1.8808200837        1.6787048054        3.1335579419
        1.9264196014        1.6031840015        3.2225615579
        1.9791711807        1.5390644384        3.3166454419
        2.0372253559        1.4857038661        3.4143766670
        2.0992205054        1.4426738145        3.5147084866
        2.1644292521        1.4100420212        3.6167374051
        2.2324980220        1.3880104401        3.7195182763
        2.3030076372        1.3761600785        3.8221398635
        2.3752009477        1.3729178581        3.9240112504
        2.4480867163        1.3757824293        4.0250916342
        2.5208374444        1.3823416904        4.1257956261
        2.5931713745        1.3915297475        4.2265363625
        2.6654158681        1.4043334748        4.3271570145
        2.7381822070        1.4234599315        4.4266216632
        2.8118619942        1.4521200953        4.5231863888
        2.8862738922        1.4926279917        4.6149541248
        2.9606672142        1.5455892585        4.7004641522
        3.0340307453        1.6100306910        4.7789623100
        3.1054603476        1.6842201521        4.8502373981
        3.1743429406        1.7665623462        4.9142091438
        3.2402902271        1.8560431932        4.9705937462
        3.3029480011        1.9521081030        5.0188651740
        3.3618662678        2.0542593098        5.0584757745
        3.4165157970        2.1617655499        5.0891030113
        3.4663852084        2.2736724529        5.1106958492
        3.5110281649        2.3890018545        5.1232831430
        3.5500026038        2.5068891214        5.1267159973
        3.5827759520        2.6265167311        5.1205782220
        3.6087313452        2.7469284779        5.1043693682
        3.6273345648        2.8669354566        5.0778503525
        3.6383695063        2.9852422104        5.0413102142
        3.6420563764        3.1007116098        4.9955615065
        3.6389245230        3.2125429000        4.9416592261
        3.6294884695        3.3201906453        4.8805233605
        3.6139351237        3.4230622483        4.8126992050
        3.5920419947        3.5202238848        4.7383866652
        1.8442099479        1.7658086393        3.0514713857
        1.8725371256        1.6827672491        3.1395379105
        1.9105949221        1.6119426304        3.2345249428
        1.9564939301        1.5530437164        3.3343447881
        2.0080154265        1.5049437497        3.4374078073
        2.0632937062        1.4664716118        3.5426592198
        2.1212779620        1.4370449523        3.6493037315
        2.1817122174        1.4167016730        3.7565122153
        2.2446830029        1.4055135602        3.8633831806
        2.3100709529        1.4028449009        3.9691940255
        2.3772912273        1.4070824948        4.0737090877
        2.4454804772        1.4161597111        4.1772284349
        2.5139549426        1.4286239984        4.2802381815
        2.5825734666        1.4445689474        4.3828310236
        2.6517262894        1.4657916749        4.4842674193
        2.7219573895        1.4950281843        4.5829810857
        2.7934905696        1.5347158221        4.6770382596
        2.8659753398        1.5860121679        4.7647543011
        2.9385831754        1.6485816335        4.8450797521
        3.0103292505        1.7211273001        4.9175540316
        3.0803675422        1.8021917725        4.9819422464
        3.1480853347        1.8906818078        5.0378786232
        3.2130136718        1.9858835458        5.0847900363
        3.2747030393        2.0871470844        5.1221190239
        3.3326894875        2.1936118263        5.1496159210
        3.3865440590        2.3042087289        5.1674204722
        3.4358979063        2.4178752504        5.1758363687
        3.4803657437        2.5337281412        5.1749653105
        3.5194188138        2.6510087229        5.1644982379
        3.5523533999        2.7688567244        5.1438553847
        3.5784545733        2.8861487709        5.1126053970
        3.5972889446        3.0015889373        5.0708779036
        3.6089154633        3.1140047635        5.0194773603
        3.6138198530        3.2225946690        4.9596123816
        3.6125679884        3.3268846109        4.8924204024
        3.6053974460        3.4263872361        4.8186011964
        3.5920419947        3.5202238848        4.7383866652
        1.8442099479        1.7658086393        3.0514713857
        1.8640825940        1.6874948844        3.1448756752
        1.8944950535        1.6220362617        3.2452001486
        1.9335853692        1.5690805004        3.3501013358
        1.9787608975        1.5270043195        3.4578230221
        2.0275159164        1.4937550833        3.5673185919
        2.0782543619        1.4678534108        3.6779717490
        2.1306383497        1.4489437369        3.7891845907
        2.1852560006        1.4375476203        3.9001641082
        2.2428404995        1.4342184894        4.0100578455
        2.3035589165        1.4387277830        4.1182974288
        2.3668128116        1.4498994797        4.2248266440
        2.4316133807        1.4662433060        4.3299636767
        2.4971963855        1.4869518400        4.4339264574
        2.5634132367        1.5125554318        4.5363237625
        2.6306460229        1.5447703946        4.6359679040
        2.6993602539        1.5856440185        4.7311484029
        2.7696458737        1.6365695614        4.8201799049
        2.8410477580        1.6977802622        4.9018499296
        2.9127294882        1.7685390657        4.9754861886
        2.9837754612        1.8477443672        5.0406640629
        3.0533952314        1.9344468285        5.0968462750
        3.1209436318        2.0279517001        5.1432771691
        3.1858479444        2.1275729407        5.1792235697
        3.2475786743        2.2323721962        5.2043510951
        3.3056961063        2.3411586656        5.2188957430
        3.3598785734        2.4527355823        5.2234437408
        3.4098318061        2.5661355855        5.2184498828
        3.4551077137        2.6806071253        5.2038532323
        3.4949972353        2.7953650553        5.1791016234
        3.5286538334        2.9093586562        5.1436001827
        3.5554265805        3.0213099241        5.0972775528
        3.5751753631        3.1300252878        5.0408637480
        3.5882976575        3.2347084325        4.9756751751
        3.5953866396        3.3349600334        4.9030562445
        3.5967331960        3.4304037001        4.8238701536
        3.5920419947        3.5202238848        4.7383866652
        1.8442099479        1.7658086393        3.0514713857
        1.8555135075        1.6928443796        3.1495288241
        1.8782125163        1.6333535987        3.2545028362
        1.9105714045        1.5869833368        3.3637946752
        1.9496706305        1.5516600491        3.4754683972
        1.9922888983        1.5244125806        3.5884871230
        2.0360870931        1.5027202790        3.7024637057
        2.0804168273        1.4856371503        3.8171327629
        2.1262436379        1.4739957755        3.9319153314
        2.1752265527        1.4695585838        4.0458654143
        2.2285410985        1.4736833702        4.1580004351
        2.2861740764        1.4863944461        4.2677262629
        2.3470594240        1.5064507135        4.3749916952
        2.4098409079        1.5322921380        4.4800129698
        2.4736665184        1.5631485298        4.5827449856
        2.5384908037        1.5995381139        4.6824823765
        2.6047816985        1.6428784898        4.7778841008
        2.6729498936        1.6945776846        4.8673947186
        2.7429374778        1.7552815126        4.9497357808
        2.8141854246        1.8247325115        5.0241020339
        2.8858746831        1.9021742251        5.0899522766
        2.9571757272        1.9868499387        5.1466269188
        3.0273363429        2.0781784605        5.1931710463
        3.0956468772        2.1755545468        5.2285661734
        3.1614301644        2.2780687571        5.2522143848
        3.2241226505        2.3844744790        5.2642727237
        3.2833540322        2.4934535650        5.2655182084
        3.3388815985        2.6039264407        5.2567851425
        3.3903652488        2.7151073110        5.2383727711
        3.4371605200        2.8262568734        5.2098792389
        3.4783577750        2.9363896551        5.1706135698
        3.5131191890        3.0442539718        5.1202975593
        3.5410910463        3.1486473674        5.0595374488
        3.5625448053        3.2487870941        4.9897093997
        3.5780708946        3.3443523564        4.9123429895
        3.5880075335        3.4350803774        4.8284647359
        3.5920419947        3.5202238848        4.7383866652
        1.8442099479        1.7658086393        3.0514713857
        1.8468873329        1.6987678678        3.1534603615
        1.8618345315        1.6457716436        3.2623603227
        1.8875522868        1.6065318065        3.3753249976
        1.9208951208        1.5786265478        3.4902240433
        1.9579356913        1.5582443901        3.6060125263
        1.9954636283        1.5418133055        3.7225444118
        2.0322883658        1.5276692718        3.8399459009
        2.0695238453        1.5167391464        3.9579397462
        2.1096472138        1.5117659192        4.0755569640
        2.1549165636        1.5155459991        4.1914138610
        2.2061274730        1.5293030576        4.3043287485
        2.2624055593        1.5522026128        4.4137999866
        2.3220009515        1.5822013610        4.5199697245
        2.3834161025        1.6175244525        4.6230917652
        2.4460956953        1.6577222556        4.7229063595
        2.5103428249        1.7036800625        4.8183939351
        2.5767114203        1.7567640262        4.9080742733
        2.6454152912        1.8178510055        4.9905822823
        2.7161331355        1.8869231690        5.0650423400
        2.7881912880        1.9633491242        5.1309543489
        2.8608332678        2.0464263100        5.1877379192
        2.9333291422        2.1356551825        5.2343904691
        3.0049259211        2.2305701219        5.2696306033
        3.0748183145        2.3303965072        5.2924785260
        3.1422606888        2.4339359026        5.3028191756
        3.2067332095        2.5398171304        5.3014541098
        3.2679566344        2.6468722456        5.2895318766
        3.3256669467        2.7542728197        5.2677537320
        3.3793146838        2.8613060183        5.2359631016
        3.4279885037        2.9670387342        5.1934518111
        3.4707119362        3.0702458370        5.1397586618
        3.5069265698        3.1697254517        5.0753411812
        3.5367533397        3.2647184261        5.0015941404
        3.5607491214        3.3549868115        4.9202032273
        3.5792861415        3.4403809171        4.8323487253
        3.5920419947        3.5202238848        4.7383866652
        1.8442099479        1.7658086393        3.0514713857
        1.8382618651        1.7052136287        3.1566390027
        1.8454435579        1.6591582740        3.2687119584
        1.8646006632        1.6274792783        3.3846134467
        1.8925071641        1.6075482673        3.5020063884
        1.9246311751        1.5948923581        3.6198017602
        1.9568631831        1.5850086758        3.7380609815
        1.9872826805        1.5754724054        3.8573018903
        2.0168590968        1.5670480142        3.9775999663
        2.0486071790        1.5630396928        4.0980587553
        2.0857187965        1.5672495033        4.2170082237
        2.1298415984        1.5818382486        4.3327815648
        2.1805045483        1.6064149343        4.4444881624
        2.2358560750        1.6387928911        4.5521933354
        2.2940187730        1.6767097832        4.6563664976
        2.3540857073        1.7192484085        4.7570282466
        2.4162130846        1.7670747219        4.8532599975
        2.4809919048        1.8215634213        4.9434420489
        2.5487298400        1.8836462578        5.0259940950
        2.6191637707        1.9532509606        5.0999913160
        2.6916497002        2.0295783555        5.1651535037
        2.7654900621        2.1117692713        5.2212530128
        2.8400580811        2.1993041231        5.2674987138
        2.9146837375        2.2918502575        5.3024893043
        2.9885368865        2.3888236504        5.3248477329
        3.0607194817        2.4891575337        5.3340483583
        3.1305132723        2.5915091253        5.3307423464
        3.1975155133        2.6946799428        5.3162669270
        3.2614702858        2.7978239946        5.2916896493
        3.3219101568        2.9002531582        5.2571371717
        3.3779588613        3.0010751671        5.2119461092
        3.4285513831        3.0990869767        5.1555121027
        3.4729508753        3.1930950991        5.0881439796
        3.5111186370        3.2823759190        5.0112270292
        3.5435507268        3.3667790870        4.9265709429
        3.5706347680        3.4462641922        4.8354913655
        3.5920419947        3.5202238848        4.7383866652
        1.8442099479        1.7658086393        3.0514713857
        1.8296951500        1.7121268035        3.1590394190
        1.8291186406        1.6733753407        3.2735093183
        1.8417633758        1.6495588969        3.3916016659
        1.8644916995        1.6379976424        3.5107681708
        1.8923457853        1.6337987726        3.6298293896
        1.9203950447        1.6317446505        3.7489813883
        1.9458785100        1.6286851939        3.8690756893
        1.9693189857        1.6249731918        3.9905478672
        1.9938726514        1.6239733110        4.1126776755
        2.0233288501        1.6299248166        4.2336963973
        2.0600447610        1.6455399669        4.3516652857
        2.1040551619        1.6708503305        4.4654615365
        2.1537067574        1.7038805485        4.5751056654
        2.2071250165        1.7424469170        4.6811666148
        2.2633890003        1.7856988770        4.7837127910
        2.3227065530        1.8343943556        4.8816497255
        2.3857287806        1.8899511450        4.9729804548
        2.4527266453        1.9531911029        5.0557764989
        2.5232768792        2.0237557636        5.1290655583
        2.5965454693        2.1004819445        5.1929131134
        2.6717504069        2.1822272032        5.2476494580
        2.7483411798        2.2683785901        5.2929146909
        2.8258067716        2.3586929365        5.3273562675
        2.9034122357        2.4527588922        5.3492720685
        2.9801994757        2.5496575976        5.3576929906
        3.0552719356        2.6481239311        5.3530131575
        3.1280563775        2.7469895179        5.3366345636
        3.1982360119        2.8454336453        5.3099041370
        3.2653848433        2.9428042230        5.2732078744
        3.3286705996        3.0382408907        5.2259545824
        3.3869802852        3.1305563914        5.1674386791
        3.4394337411        3.2185738672        5.0978411458
        3.4858373367        3.3016196966        5.0185251071
        3.5266051972        3.3796360611        4.9313922749
        3.5621187578        3.4526846476        4.8378676566
        3.5920419947        3.5202238848        4.7383866652
        1.8442099479        1.7658086393        3.0514713857
        1.8212454307        1.7194501169        3.1606424342
        1.8129375250        1.6882821607        3.2767162333
        1.8190678488        1.6724931702        3.3962505322
        1.8367508112        1.6694902997        3.5164952323
        1.8608244497        1.6742143979        3.6361369769
        1.8857002144        1.6809914455        3.7554133175
        1.9077549392        1.6860383487        3.8754113034
        1.9268075486        1.6890993253        3.9968956456
        1.9457336948        1.6931398088        4.1194141863
        1.9684977975        1.7023025545        4.2413072452
        1.9979159633        1.7194964210        4.3606072950
        2.0345422338        1.7451659628        4.4761240813
        2.0771738616        1.7778625550        4.5878400691
        2.1243156472        1.8159341106        4.6962761227
        2.1753954093        1.8589564812        4.8013280394
        2.2309203524        1.9079116630        4.9015364309
        2.2916942999        1.9641878053        4.9944319181
        2.3579015104        2.0283499903        5.0777299780
        2.4288095982        2.0996605976        5.1504394764
        2.5032044021        2.1765939152        5.2129934155
        2.5800491929        2.2577695387        5.2662933612
        2.6587702475        2.3424934914        5.3104462799
        2.7390096607        2.4305593640        5.3442295180
        2.8201973058        2.5216433987        5.3657252901
        2.9014082964        2.6149169629        5.3736059886
        2.9816278615        2.7091947382        5.3680203342
        3.0601114718        2.8033830229        5.3503684090
        3.1364359072        2.8967296136        5.3221766157
        3.2101699961        2.9886318731        5.2840189283
        3.2805140985        3.0782518328        5.2353665817
        3.3463338337        3.1644116982        5.1754485897
        3.4066421328        3.2459622963        5.1043540109
        3.4611051929        3.3222975201        5.0234253773
        3.5100410654        3.3934566014        4.9346261186
        3.5538025771        3.4595926807        4.8394585972
        3.5920419947        3.5202238848        4.7383866652
        1.8442099479        1.7658086393        3.0514713857
        1.8129710942        1.7271245805        3.1614351731
        1.7969793654        1.7037391835        3.2783087049
        1.7965331275        1.6960066421        3.3985382264
        1.8091272526        1.7015167629        3.5191998916
        1.8296167979        1.7152616570        3.6388201673
        1.8519642191        1.7313584507        3.7575892510
        1.8717424973        1.7455151197        3.8767183047
        1.8878962185        1.7567569652        3.9972447421
        1.9026675118        1.7673291298        4.1190463057
        1.9198142668        1.7809075686        4.2407445360
        1.9423732423        1.8003780412        4.3605355516
        1.9714124208        1.8266331059        4.4772565493
        2.0063720150        1.8589795710        4.5907898753
        2.0464050423        1.8965412476        4.7014389242
        2.0915105426        1.9394148563        4.8087791692
        2.1426133105        1.9887124684        4.9109747863
        2.2006992320        2.0456136185        5.0052206372
        2.2658529804        2.1103194038        5.0890577254
        2.3370081759        2.1817676952        5.1615597442
        2.4125328177        2.2582506516        5.2234381914
        2.4910746950        2.3383331345        5.2759544314
        2.5719618184        2.4213148978        5.3194863171
        2.6549318260        2.5069699364        5.3528843514
        2.7395694744        2.5949413853        5.3741195952
        2.8250207952        2.6843972103        5.3816839333
        2.9102044838        2.7742111591        5.3756072234
        2.9942295264        2.8633960408        5.3572929584
        3.0765495011        2.9513016731        5.3283572477
        3.1566913605        3.0373796003        5.2894631900
        3.2338677823        3.1208001759        5.2401070962
        3.3069367813        3.2003904333        5.1794816110
        3.3748370360        3.2750450184        5.1076296228
        3.4371149674        3.3442459081        5.0258851331
        3.4939848345        3.4081324285        4.9362445785
        3.5457493339        3.4669350501        4.8402513732
        3.5920419947        3.5202238848        4.7383866652
        1.8442099479        1.7658086393        3.0514713857
        1.8049305906        1.7350901497        3.1614111626
        1.7813277273        1.7196115258        3.2782747617
        1.7741846338        1.7198402201        3.3984579690
        1.7814456201        1.7335862535        3.5189116958
        1.7981621018        1.7560422292        3.6380040504
        1.8180597171        1.7813165219        3.7558152132
        1.8360270401        1.8047470462        3.8735811157
        1.8500759270        1.8246362903        3.9925428321
        1.8616033644        1.8423781582        4.1129261061
        1.8739211239        1.8610292234        4.2337306542
        1.8901590566        1.8833917514        4.3534108434
        1.9119393183        1.9108684915        4.4708279241
        1.9394886170        1.9436265602        4.5856377718
        1.9727244825        1.9815859397        4.6977628424
        2.0122106533        2.0252297362        4.8064054371
        2.0591686988        2.0755606956        4.9095095436
        2.1146301659        2.1333453010        5.0042587580
        2.1785356963        2.1983807047        5.0883393093
        2.2495669401        2.2694306774        5.1610087335
        2.3258243471        2.3448526578        5.2230925436
        2.4057598217        2.4233588059        5.2758558485
        2.4886287628        2.5043064826        5.3196060708
        2.5742079970        2.5873849495        5.3531221468
        2.6621627651        2.6720945415        5.3743576086
        2.7516749856        2.7575307302        5.3818463796
        2.8416100135        2.8426245627        5.3756837826
        2.9309579157        2.9265276399        5.3573187642
        3.0190549251        3.0087104591        5.3283735481
        3.1053661123        3.0886673730        5.2894896284
        3.1890964392        3.1655570966        5.2401395504
        3.2691010075        3.2382114664        5.1795070880
        3.3442707555        3.3055920172        5.1076404119
        3.4140544428        3.3672913979        5.0258821343
        3.4785598896        3.4235490437        4.9362332745
        3.5380202984        3.4746553079        4.8402394871
        3.5920419947        3.5202238848        4.7383866652
        1.8442099479        1.7658086393        3.0514713857
        1.7971822953        1.7432863118        3.1605703887
        1.7660734799        1.7357720254        3.2766143186
        1.7520707096        1.7437650286        3.3960158789
        1.7535655307        1.7652742105        3.5156673660
        1.7659167012        1.7957642272        3.6338118649
        1.7827976515        1.8294760767        3.7503946982
        1.7985765618        1.8615275047        3.8666040041
        1.8103970146        1.8896060331        3.9838095814
        1.8187753508        1.9143157080        4.1025514004
        1.8265199243        1.9381401691        4.2222134871
        1.8368628300        1.9638517228        4.3415027711
        1.8520719448        1.9933997159        4.4592312240
        1.8732525877        2.0277704615        4.5746915838
        1.9010583203        2.0675182997        4.6873128828
        1.9364081430        2.1132564566        4.7959561973
        1.9804926418        2.1656261144        4.8985792917
        2.0340999157        2.2248468516        4.9927187779
        2.0969254566        2.2903507626        5.0765229235
        2.1675274882        2.3608961846        5.1495267757
        2.2440067949        2.4350946848        5.2124862962
        2.3248708144        2.5119138099        5.2663190516
        2.4094202814        2.5907664321        5.3109461354
        2.4974424413        2.6711924543        5.3449577803
        2.5885829363        2.7524973278        5.3663945326
        2.6819802438        2.8337062786        5.3740428269
        2.7764299436        2.9138489845        5.3682212497
        2.8708287818        2.9922500481        5.3504406358
        2.9644179712        3.0684973541        5.3222322599
        3.0565972045        3.1420975505        5.2841051874
        3.1465485075        3.2121752911        5.2354661052
        3.2331232942        3.2775763712        5.1755234215
        3.3151846360        3.3373600806        5.1043838823
        3.3921046030        3.3912519773        5.0234146899
        3.4638854219        3.4395867167        4.9345915080
        3.5306744291        3.4826942525        4.8394228264
        3.5920419947        3.5202238848        4.7383866652
        1.8442099479        1.7658086393        3.0514713857
        1.7897842887        1.7516525847        3.1589193065
        1.7513171221        1.7521034789        3.2733390936
        1.7302782997        1.7675934087        3.3912294610
        1.7254372272        1.7962633046        3.5095023791
        1.7324978437        1.8338572546        3.6263353580
        1.7452288024        1.8748437294        3.7415501301
        1.7576805637        1.9142874382        3.8562419996
        1.7663162706        1.9494701533        3.9718279964
        1.7709089985        1.9804210507        4.0890747735
        1.7738640908        2.0092277381        4.2076725414
        1.7786078530        2.0387196750        4.3265050320
        1.7881304584        2.0713459371        4.4442520017
        1.8044177908        2.1087238752        4.5597698856
        1.8287153484        2.1517638460        4.6719802997
        1.8619928590        2.2009391271        4.7794982366
        1.9050275449        2.2563664688        4.8805006724
        1.9580533694        2.3177065183        4.9731211551
        2.0204116835        2.3841283463        5.0561377306
        2.0906580217        2.4545101452        5.1293683491
        2.1671526414        2.5277826187        5.1933471926
        2.2487064322        2.6031498348        5.2484338039
        2.3347889118        2.6800204149        5.2940250845
        2.4251805089        2.7577522348        5.3285327662
        2.5194186509        2.8354879058        5.3502150692
        2.6165274703        2.9122602809        5.3582574947
        2.7152239898        2.9872666706        5.3532614213
        2.8143478751        3.0600212988        5.3367418212
        2.9130812685        3.1301947482        5.3100182950
        3.0107667735        3.1972596977        5.2733718019
        3.1065528607        3.2602905833        5.2261253331
        3.1992832967        3.3181706688        5.1675570511
        3.2878071582        3.3700945199        5.0978824065
        3.3714379996        3.4159387082        5.0185016894
        3.4500753861        3.4561215234        4.9313322918
        3.5237679074        3.4909903956        4.8378076709
        3.5920419947        3.5202238848        4.7383866652
        1.8442099479        1.7658086393        3.0514713857
        1.7827940329        1.7601289159        3.1564708071
        1.7371701070        1.7684998016        3.2684726141
        1.7089449020        1.7911849802        3.3841271339
        1.6971482165        1.8263686134        3.5004465501
        1.6978106656        1.8700462085        3.6156156968
        1.7049173009        1.9169870995        3.7293671066
        1.7124452924        1.9623932449        3.8426758158
        1.7164789714        2.0034224199        3.9569145027