VARIABLES = X, Y, Z
ZONE I=       37  J=       73  F=POINT
        2.0720966632        1.9642079660       11.9933317647
        2.1165904114        1.8964528403       12.0839445413
        2.1773354211        1.8383980769       12.1696097227
        2.2591757146        1.7951791718       12.2445809751
        2.3605819625        1.7696550050       12.3031908351
        2.4752648519        1.7617459156       12.3422118489
        2.5957678321        1.7686559109       12.3622443370
        2.7167795500        1.7860663308       12.3671824936
        2.8363379537        1.8098393657       12.3620154971
        2.9546830748        1.8374284245       12.3502880220
        3.0720731353        1.8683311434       12.3327209717
        3.1873273628        1.9034781205       12.3076668377
        3.2980033833        1.9440592197       12.2728544623
        3.4017326575        1.9905435396       12.2271309325
        3.4974171482        2.0424026746       12.1711106643
        3.5852911485        2.0985124166       12.1065534618
        3.6659109283        2.1577829256       12.0351859169
        3.7390274881        2.2195289715       11.9579186081
        3.8033148834        2.2834030523       11.8749197893
        3.8571264480        2.3490845645       11.7862668478
        3.8995590946        2.4160555308       11.6925149991
        3.9308779146        2.4836330342       11.5947378220
        3.9519495270        2.5511575804       11.4941323053
        3.9632122924        2.6181092096       11.3916396990
        3.9641139959        2.6840357398       11.2879287180
        3.9535380613        2.7483976835       11.1836755260
        3.9308777766        2.8105361741       11.0797745314
        3.8968407076        2.8698480096       10.9772102350
        3.8532610322        2.9260198881       10.8767065663
        3.8020037427        2.9790624594       10.7785562646
        3.7437942689        3.0290258085       10.6829146263
        3.6778871498        3.0755718023       10.5903952153
        3.6028398096        3.1177670627       10.5024353686
        3.5178116872        3.1543492681       10.4209823382
        3.4234357108        3.1843617899       10.3475792550
        3.3216771505        3.2077244070       10.2824846144
        3.2148761133        3.2252925174       10.2245484194
        2.0720966632        1.9642079660       11.9933317647
        2.1134020163        1.9036035762       12.0908656227
        2.1720919439        1.8537807323       12.1833057655
        2.2524390645        1.8195922768       12.2648138239
        2.3524371040        1.8033679284       12.3296369350
        2.4655977451        1.8044492779       12.3744755864
        2.5845235168        1.8196719074       12.3998909110
        2.7040593958        1.8446885391       12.4097916540
        2.8223352839        1.8755806019       12.4092263013
        2.9395626491        1.9100321472       12.4017925427
        3.0559060182        1.9475787476       12.3881953821
        3.1701180454        1.9889616644       12.3666819061
        3.2797653661        2.0350883541       12.3348359148
        3.3825443839        2.0862316795       12.2914113621
        3.4774262900        2.1418378339       12.2370458102
        3.5646862155        2.2008706303       12.1736221071
        3.6448973929        2.2623118912       12.1030009528
        3.7178226297        2.3254469926       12.0261432541
        3.7821429712        2.3898236574       11.9431546882
        3.8361903909        2.4550425467       11.8539929326
        3.8789924556        2.5206138164       11.7591296351
        3.9107135011        2.5859776255       11.6596487451
        3.9321428389        2.6505994718       11.5568353247
        3.9437225897        2.7139938110       11.4517298533
        3.9450003886        2.7756405958       11.3450545422
        3.9350111419        2.8349110282       11.2374881499
        3.9132741436        2.8911438595       11.1299141843
        3.8805374844        2.9438689097       11.0233278265
        3.8385819008        2.9929901878       10.9184840809
        3.7891636438        3.0387068119       10.8156991943
        3.7328958506        3.0811364294       10.7151300365
        3.6689488219        3.1198807233       10.6173957427
        3.5958270191        3.1538963357       10.5239905465
        3.5126585554        3.1818644920       10.4369885258
        3.4200624826        3.2028834606       10.3580879868
        3.3200116900        3.2170195161       10.2876540201
        3.2148761133        3.2252925174       10.2245484194
        2.0720966632        1.9642079660       11.9933317647
        2.1097940595        1.9111657684       12.0970534148
        2.1657097216        1.8698406437       12.1956020021
        2.2436366509        1.8448202901       12.2830809673
        2.3412446469        1.8379495178       12.3536441135
        2.4519725071        1.8480552306       12.4038775104
        2.5685295763        1.8716561511       12.4342624165
        2.6858947838        1.9043857996       12.4487142950
        2.8022434551        1.9425129078       12.4523642022
        2.9177298146        1.9839105298       12.4488861590
        3.0324259160        2.0281360435       12.4389636617
        3.1450361852        2.0757598278       12.4207063117
        3.2531569334        2.1274374428       12.3915277674
        3.3545703908        2.1832567649       12.3501043777
        3.4483423146        2.2426200776       12.2971531845
        3.5348122999        2.3045507699       12.2347385274
        3.6145708314        2.3680952232       12.1648679238
        3.6873494531        2.4325366145       12.0885031151
        3.7517573030        2.4973604415       12.0056070529
        3.8060340486        2.5621108885       11.9159638024
        3.8491315285        2.6263068315       11.8199718395
        3.8811981885        2.6894630152       11.7187897321
        3.9030896586        2.7511299755       11.6138588617
        3.9153737095        2.8108574389       11.5063418860
        3.9177183924        2.8680997473       11.3969813199
        3.9092045802        2.9221908322       11.2864023469
        3.8892958814        2.9724902546       11.1754460409
        3.8586179272        3.0186393033       11.0651345661
        3.8188346112        3.0607103383       10.9563005474
        3.7716489429        3.0990496104       10.8493195972
        3.7176887851        3.1338342591       10.7443453125
        3.6561613818        3.1646307505       10.6419596566
        3.5855758137        3.1903227594       10.5436622725
        3.5050130755        3.2095612832       10.4516236123
        3.4150202840        3.2215055814       10.3676970678
        3.3175194372        3.2263594001       10.2923733415
        3.2148761133        3.2252925174       10.2245484194
        2.0720966632        1.9642079660       11.9933317647
        2.1057842481        1.9190718932       12.1024611472
        2.1582143771        1.8864234130       12.2064046668
        2.2328093760        1.8706204005       12.2992393119
        2.3270694042        1.8730816757       12.3750191878
        2.4344792747        1.8921836769       12.4301801311
        2.5478965799        1.9241680114       12.4650888093
        2.6624096377        1.9646491329       12.4836571851
        2.7761923357        2.0100560616       12.4911099448
        2.8893130391        2.0584248373       12.4912073672
        3.0017557121        2.1093290023       12.4846041022
        3.1122041705        2.1631793027       12.4692558423
        3.2183170677        2.2203892524       12.4424057422
        3.3179872337        2.2808578692       12.4026840773
        3.4103860898        2.3439323854       12.3509370500
        3.4959113244        2.4086952569       12.2894413981
        3.5751436460        2.4742769885       12.2203334157
        3.6477397234        2.5399865580       12.1445135876
        3.7121951822        2.6052589545       12.0617369935
        3.7666470094        2.6695621043       11.9715933859
        3.8100138908        2.7323833388       11.8744485158
        3.8425170757        2.7932829072       11.7716086144
        3.8651721535        2.8519057752       11.6647241711
        3.8787146616        2.9078837454       11.5550755316
        3.8828866039        2.9606982690       11.4433700649
        3.8766893450        3.0096654681       11.3301161736
        3.8593817898        3.0541349116       11.2160873579
        3.8313654862        3.0937965574       11.1023599088
        3.7941786709        3.1288361345       10.9898982140
        3.7495501824        3.1597322616       10.8791759232
        3.6982408486        3.1867507452       10.7703394778
        3.6395913587        3.2094725802       10.6638924854
        3.5721515710        3.2267485824       10.5612898862
        3.4949308035        3.2372137502       10.4647669824
        3.4083477553        3.2400801673       10.3763283510
        3.3142196054        3.2356718536       10.2966052769
        3.2148761133        3.2252925174       10.2245484194
        2.0720966632        1.9642079660       11.9933317647
        2.1013965340        1.9272533131       12.1070475602
        2.1496494857        1.9033749591       12.2156294081
        2.2200268886        1.8967512524       12.3131586632
        2.3100113025        1.9084458624       12.3935875046
        2.4132460102        1.9364492247       12.4531725922
        2.5227744858        1.9767577826       12.4921331084
        2.6337693440        2.0249622874       12.5143589345
        2.7443567005        2.0776295562       12.5251656344
        2.8544920556        2.1329414502       12.5284029872
        2.9640807727        2.1904846371       12.5246994711
        3.0718221014        2.2505133294       12.5118634539
        3.1754750116        2.3131973048       12.4869867136
        3.2730607951        2.3782407927       12.4486839955
        3.3638462636        2.4449377168       12.3979561370
        3.4482563127        2.5124478639       12.3372915261
        3.5268275488        2.5800128806       12.2689216385
        3.5991224269        2.6469815193       12.1936375236
        3.6635310230        2.7127221437       12.1109569359
        3.7181241778        2.7765865253       12.0202885031
        3.7618409952        2.8379964841       11.9220156296
        3.7950243917        2.8965612042       11.8176463752
        3.8188697843        2.9520672520       11.7090601299
        3.8342554574        3.0042913760       11.5976251942
        3.8409293072        3.0527762382       11.4839534962
        3.8377236951        3.0967971136       11.3683849919
        3.8236152639        3.1356230024       11.2516140217
        3.7987459392        3.1689159790       11.1348022765
        3.7645471303        3.1969370149       11.0190948466
        3.7228353582        3.2203149700       10.9050966042
        3.6745802092        3.2394605108       10.7929452055
        3.6193132718        3.2540274501       10.6830341126
        3.5556440017        3.2628656638       10.5767321585
        3.4824897773        3.2645942550       10.4763090432
        3.4000980150        3.2584595858       10.3839104459
        3.3101379691        3.2448849404       10.3003160525
        3.2148761133        3.2252925174       10.2245484194
        2.0720966632        1.9642079660       11.9933317647
        2.0966610090        1.9356410169       12.1107772403
        2.1400760724        1.9205431138       12.2232021367
        2.2053864797        1.9229749771       12.3247231609
        2.2902038680        1.9437257147       12.4091943036
        2.3884367738        1.9804654982       12.4726706209
        2.4933509883        2.0289732973       12.5151891921
        2.6001802203        2.0848088997       12.5405871007
        2.7069585999        2.1446565182       12.5542548940
        2.8135039873        2.2068299897       12.5601350697
        2.9196565642        2.2709255807       12.5588509538
        3.0241715586        2.3370396461       12.5480956751
        3.1249457340        2.4050936690       12.5248406820
        3.2201358881        2.4745950297       12.4877009648
        3.3090753198        2.5447951237       12.4378235363
        3.3921715689        2.6149552770       12.3778793689
        3.4698894517        2.6844505952       12.3101623003
        3.5417091816        2.7526695599       12.2353385351
        3.6059642755        2.8188854863       12.1527022632
        3.6607185447        2.8822958114       12.0615173908
        3.7049666941        2.9422411288       11.9622222979
        3.7391645669        2.9984065047       11.8565418574
        3.7646399813        3.0507784407       11.7465670911
        3.7823527336        3.0993298568       11.6337139600
        3.7920090153        3.1436697746       11.5184572238
        3.7922523578        3.1829814720       11.4009453435
        3.7817816099        3.2163732885       11.2817966546
        3.7604947894        3.2434167203       11.1622807010
        3.7297327572        3.2644363632       11.0437502658
        3.6914141772        3.2802509896       10.9269592396
        3.6467324807        3.2914779904       10.8120378993
        3.5954255289        3.2978928254       10.6992546878
        3.5361715342        3.2983615888       10.5898669117
        3.4677907635        3.2914771112       10.4861520533
        3.3903382380        3.2764982362       10.3903794316
        3.3053066442        3.2539276054       10.3034757268
        3.2148761133        3.2252925174       10.2245484194
        2.0720966632        1.9642079660       11.9933317647
        2.0916136801        1.9441663287       12.1136209258
        2.1295719050        1.9377791824       12.2290598119
        2.1890118980        1.9490593723       12.3338324342
        2.2678128536        1.9786100358       12.4217053877
        2.3602503589        2.0238495716       12.4885156865
        2.4598504485        2.0803656785       12.5340798175
        2.5618896027        2.1436777636       12.5621378373
        2.6642697032        2.2105660493       12.5781281083
        2.7666478216        2.2794622140       12.5860937580
        2.8688127608        2.3499685656       12.5866961698
        2.9696156561        2.4220235271       12.5775697071
        3.0671248588        2.4952992454       12.5556019469
        3.1596313560        2.5691084246       12.5194017643
        3.2464961348        2.6426716563       12.4702181094
        3.3280616760        2.7153708801       12.4108536618
        3.4047043823        2.7867281923       12.3436434970
        3.4758576455        2.8561666916       12.2691530972
        3.5398691292        2.9228415374       12.1865057860
        3.5948556035        2.9857724997       12.0948656511
        3.6398727305        3.0442177031       11.9947337785
        3.6754302030        3.0979665807       11.8880203695
        3.7028978755        3.1472474197       11.7769815089
        3.7232497616        3.1922541072       11.6630490982
        3.7361447261        3.2326477870       11.5465573171
        3.7400909358        3.2674703508       11.4274784051
        3.7335823576        3.2956129476       11.3063683844
        3.7163182433        3.3165253552       11.1846047004
        3.6895436411        3.3306050041       11.0637387859
        3.6552371625        3.3388995384       10.9446684225
        3.6147712056        3.3422761986       10.8275213792
        3.5680695548        3.3406576988       10.7124480519
        3.5138855897        3.3329286677       10.6005895900
        3.4509569845        3.3176427339       10.4942107047
        3.3791489808        3.2940542139       10.3956795300
        3.2997638006        3.2627302728       10.3060584730
        3.2148761133        3.2252925174       10.2245484194
        2.0720966632        1.9642079660       11.9933317647
        2.0862961324        1.9527615764       12.1155557776
        2.1182305968        1.9549394608       12.2331511544
        2.1710520863        1.9747801861       12.3404025285
        2.2430350105        2.0127959717       12.4310073574
        2.3289192868        2.0662262337       12.5005738739
        2.4225332144        2.1304942218       12.5486552735
        2.5191858335        2.2010670419       12.5788376847
        2.6166122849        2.2747957501       12.5965709217
        2.7142858588        2.3502135748       12.6060129558
        2.8119533604        2.4269275854       12.6079277143
        2.9085959392        2.5047251022       12.5999680859
        3.0024826954        2.5830353939       12.5789760058
        3.0920352029        2.6609804346       12.5435255354
        3.1766040724        2.7377543885       12.4948920495
        3.2564235951        2.8128663273       12.4359436912
        3.3317733032        2.8859911336       12.3690504186
        3.4020835537        2.9565872336       12.2947364223
        3.4657887606        3.0236869586       12.2120351756
        3.5211077637        3.0861275954       12.1200531035
        3.5671387159        3.1430858373       12.0193272445
        3.6043586716        3.1944626575       11.9118801020
        3.6340740476        3.2407345782       11.8000692822
        3.6572164090        3.2823138637       11.6853326236
        3.6734293767        3.3189003115       11.5679062387
        3.6811899320        3.3493774603       11.4476394744
        3.6789006894        3.3724100382       11.3250444424
        3.6661184528        3.3873307063       11.2015772393
        3.6439645224        3.3946243549       11.0789382889
        3.6143915382        3.3955819639       10.9581395683
        3.5788631591        3.3913266975       10.8393146468
        3.5374450455        3.3819255133       10.7225248882
        3.4889728173        3.3662745696       10.6088115686
        3.4321330288        3.3428817972       10.5004126133
        3.3666232488        3.3109908730       10.3997637376
        3.2935533104        3.2712254221       10.3080428343
        3.2148761133        3.2252925174       10.2245484194
        2.0720966632        1.9642079660       11.9933317647
        2.0807550843        1.9613607115       12.1165656115
        2.1061605251        1.9718866965       12.2354372812
        2.1516798242        1.9999234589       12.3443666720
        2.2160969742        2.0459922430       12.4370076695
        2.2947091015        2.1072319529       12.5087348419
        2.3816951118        2.1789305771       12.5587926741
        2.4723976202        2.2564881255       12.5905464320
        2.5643580927        2.3367954803       12.6094134671
        2.6568415758        2.4184681486       12.6196852871
        2.7495529314        2.5011214306       12.6223088302
        2.8416267634        2.5844096302       12.6150483494
        2.9315573072        2.6675352696       12.5947396070
        3.0178973411        2.7494324779       12.5598767842
        3.0999593244        2.8292598257       12.5116638366
        3.1778357611        2.9066433051       12.4529578313
        3.2517033614        2.9814109976       12.3861682929
        3.3210267409        3.0530711473       12.3118616882
        3.3843872270        3.1205540502       12.2290796693
        3.4401422476        3.1825271125       12.1369070125
        3.4874064367        3.2380781199       12.0358626328
        3.5265376800        3.2871913496       11.9279795251
        3.5586805787        3.3305554509       11.8156457648
        3.5846797923        3.3687773390       11.7003168671
        3.6042103685        3.4015998218       11.5822109710
        3.6158359379        3.4277811397       11.4611362737
        3.6179901145        3.4458050199       11.3375804921
        3.6101440025        3.4549205862       11.2130243600
        3.5932580262        3.4557046540       11.0892354598
        3.5691569119        3.4496671935       10.9672914470
        3.5392914347        3.4381508908       10.8473428148
        3.5038152642        3.4213394152       10.7294075908
        3.4616537956        3.3981325073       10.6144590042
        3.4114827712        3.3669988426       10.5046988849
        3.3528653244        3.3271781989       10.4025944170
        3.2867243384        3.2793481331       10.3094119473
        3.2148761133        3.2252925174       10.2245484194
        2.0720966632        1.9642079660       11.9933317647
        2.0750418433        1.9698998731       12.1166410870
        2.0934835669        1.9884914724       12.2358922613
        2.1310902433        2.0242878745       12.3456759572
        2.1872541956        2.0779223543       12.4396347456
        2.2579178614        2.1465185352       12.5129111142
        2.3376669526        2.2252624272       12.5643956786
        2.4218925665        2.3094695253       12.5971597906
        2.5079249809        2.3960325898       12.6165378869
        2.5947940963        2.4836265621       12.6269734608
        2.6821496232        2.5718844461       12.6296842060
        2.7692881666        2.6603591461       12.6226476826
        2.8549480472        2.7480533012       12.6027360167
        2.9378226210        2.8337135008       12.5683123660
        3.0171756083        2.9164369635       12.5204008205
        3.0929370047        2.9959376907       12.4617643652
        3.1651727903        3.0721928398       12.3948597843
        3.2334022682        3.1447915512       12.3203891463
        3.2963933144        3.2126104178       12.2375080416
        3.3526691686        3.2741764327       12.1453137801
        3.4013446043        3.3284702553       12.0442418870
        3.4425950512        3.3754950578       11.9362216944
        3.4773267204        3.4160759823       11.8235970570
        3.5062590876        3.4509753503       11.7078616633
        3.5291322255        3.4800048064       11.5893114301
        3.5446907978        3.5018775079       11.4678072061
        3.5515024592        3.5149863304       11.3438326806
        3.5490042200        3.5185470689       11.2188294907
        3.5379672107        3.5132149752       11.0945379514
        3.5200003561        3.5006571591       10.9720458789
        3.4964475958        3.4823663248       10.8515335300
        3.4674996192        3.4586026118       10.7330282203
        3.4321777035        3.4282685742       10.6174728502
        3.3891863377        3.3898148006       10.5070248858
        3.3379893973        3.3424939204       10.4041438447
        3.2793308821        3.2870365930       10.3101537291
        3.2148761133        3.2252925174       10.2245484194
        2.0720966632        1.9642079660       11.9933317647
        2.0692116701        1.9783178874       12.1157798483
        2.0803336513        2.0046334918       12.2345035906
        2.1094991698        2.0476870795       12.3442999986
        2.1567898171        2.1083277592       12.4388383072
        2.2188757053        2.1837565436       12.5130378621
        2.2908139897        2.2690968287       12.5653944131
        2.3680749976        2.3595608339       12.5986108862
        2.4477717529        2.4519981534       12.6178824374
        2.5286700085        2.5451157612       12.6278163735
        2.6103357686        2.6385790054       12.6299855827
        2.6922180628        2.7318843917       12.6226848695
        2.7733110096        2.8238727868       12.6028713530
        2.8524680497        2.9131018177       12.5687324374
        2.9289144117        2.9985656537       12.5210064874
        3.0024124210        3.0800184016       12.4622762952
        3.0729062353        3.1575757652       12.3950466900
        3.1399686242        3.2309523782       12.3202426868
        3.2025690727        3.2990448125       12.2372390723
        3.2594167075        3.3602878259       12.1451859189
        3.3096301292        3.4135338709       12.0443790858
        3.3531765981        3.4587166947       11.9365357935
        3.3906785487        3.4966935486       11.8238787257
        3.4226945957        3.5283292579       11.7079503120
        3.4490325398        3.5535403338       11.5892078306
        3.4686642657        3.5711004923       11.4676513030
        3.4803556043        3.5794235836       11.3437825334
        3.4835511207        3.5777453473       11.2189497399
        3.4788243799        3.5667701116       11.0947828433
        3.4675152277        3.5482384243       10.9723314544
        3.4507958623        3.5237109432       10.8518189164
        3.4288551747        3.4934870435       10.7333301493
        3.4008137069        3.4564842518       10.6178103398
        3.3654363779        3.4111680524       10.5073612644
        3.3221180638        3.3568243226       10.4043947003
        3.2714312715        3.2942325610       10.3102610262
        3.2148761133        3.2252925174       10.2245484194
        2.0720966632        1.9642079660       11.9933317647
        2.0633230590        1.9865566964       12.1139866147
        2.0668551243        2.0202027344       12.2312725833
        2.0871412353        2.0699519336       12.3402276052
        2.1250133699        2.1369709932       12.4345900465
        2.1779443485        2.2186385992       12.5090732920
        2.2415353109        2.3100633342       12.5617455154
        2.3113834315        2.4063365481       12.5948701428
        2.3843920320        2.5042133348       12.6134415040
        2.4590335812        2.6023991293       12.6222295422
        2.5347467985        2.7006082780       12.6232328142
        2.6111036789        2.7983367498       12.6151620724
        2.6873558107        2.8943133317       12.5951170360
        2.7625444082        2.9869072292       12.5610835083
        2.8358875684        3.0749566855       12.5134243065
        2.9069925705        3.1581907191       12.4544566759
        2.9756698088        3.2368423427       12.3867177440
        3.0415230847        3.3108008329       12.3114205337
        3.1037120714        3.3790742796       12.2282537908
        3.1611421744        3.4400735966       12.1364720872
        3.2129590933        3.4925128629       12.0362028173
        3.2589369344        3.5361653931       11.9288669085
        3.2994056816        3.5718045349       11.8164912560
        3.3347343961        3.6003324098       11.7006538146
        3.3647702549        3.6217981916       11.5820209858
        3.3887049201        3.6351361653       11.4607932335
        3.4055196745        3.6388857462       11.3375131587
        3.4146923971        3.6323459414       11.2134052934
        3.4166103210        3.6162325744       11.0899367438
        3.4123300458        3.5922760868       10.9680894060
        3.4028225345        3.5620343075       10.8481424891
        3.3882525284        3.5258265771       10.7302732517
        3.3678408371        3.4826132309       10.6154478578
        3.3404340895        3.4309139493       10.5056951682
        3.3053807757        3.3700647637       10.4033404769
        3.2630876361        3.3008817886       10.3097317175
        3.2148761133        3.2252925174       10.2245484194
        2.0720966632        1.9642079660       11.9933317647
        2.0574369458        1.9945617096       12.1112732158
        2.0532009222        2.0351004541       12.2262146730
        2.0642676959        2.0909326527       12.3334674763
        2.0922591509        2.1636388094       12.4268846738
        2.1355163446        2.2508827123       12.5009997084
        2.1902631627        2.3478170125       12.5534324238
        2.2522881049        2.4493994827       12.5859437739
        2.3183081067        2.5522349261       12.6032618957
        2.3864765489        2.6549854842       12.6103003937
        2.4560490667        2.7574280718       12.6095309960
        2.5266713632        2.8591202398       12.6001669632
        2.5978409035        2.9587400666       12.5795185027
        2.6688177589        3.0544770206       12.5453729243
        2.7388623056        3.1449581394       12.4976560715
        2.8074584211        3.2298094199       12.4383403905
        2.8742750587        3.3093442152       12.3699563390
        2.9389086615        3.3836665231       12.2940326531
        3.0006718277        3.4519912767       12.2106430867
        3.0586607729        3.5127902859       12.1192080489
        3.1120807696        3.5646519658       12.0196961898
        3.1605602876        3.6071188531       11.9131887633
        3.2041649331        3.6407746247       11.8014555830
        3.2430624295        3.6664880945       11.6860720109
        3.2770954518        3.6844473491       11.5679145662
        3.3056278341        3.6938147480       11.4474081197
        3.3278318205        3.6933266146       11.3251543520
        3.3432238704        3.6823665370       11.2022519398
        3.3520251650        3.6616219295       11.0799915938
        3.3550235822        3.6327472665       10.9592821841
        3.3529885356        3.5972559397       10.8404702584
        3.3460532424        3.5554956704       10.7238418141
        3.3335386078        3.5065132324       10.6103847460
        3.3143855102        3.4489230531       10.5020314979
        3.2879123219        3.3821199417       10.4009857794
        3.2543653503        3.3069343932       10.3085687725
        3.2148761133        3.2252925174       10.2245484194
        2.0720966632        1.9642079660       11.9933317647
        2.0516158526        2.0022820716       12.1076585691
        2.0395305553        2.0492399841       12.2193596125
        2.0411439008        2.1105008022       12.3240488951
        2.0588841361        2.1881453528       12.4157413003
        2.0920139246        2.2802358092       12.4888252726
        2.1374621340        2.3820415287       12.5404661845
        2.1912888611        2.4883836235       12.5718716247
        2.2500655967        2.5956593367       12.5874366037