VARIABLES = X, Y, Z
ZONE I=       37  J=       73  F=POINT
        1.7949302333        1.7096325416        2.2345202869
        1.8507843371        1.6326891546        2.3160918377
        1.9120198669        1.5644297388        2.4015179525
        1.9769433042        1.5040442497        2.4900625396
        2.0450620256        1.4518656679        2.5812291836
        2.1167375165        1.4093006726        2.6743734910
        2.1923760684        1.3778541160        2.7685558814
        2.2717232290        1.3578923149        2.8627620255
        2.3537220421        1.3480345839        2.9563071660
        2.4369738987        1.3456734733        3.0490744019
        2.5204195856        1.3483575173        3.1413504941
        2.6037390978        1.3551683257        3.2333309804
        2.6872166319        1.3672170274        3.3246299940
        2.7712224634        1.3869738827        3.4141428854
        2.8557159934        1.4169041930        3.5003598265
        2.9401038815        1.4582825993        3.5819070149
        3.0234818517        1.5108481337        3.6579421159
        3.1050058190        1.5733413215        3.7281589754
        3.1840901790        1.6444016666        3.7924552189
        3.2603245187        1.7231785330        3.8505524563
        3.3332488226        1.8093439507        3.9018591596
        3.4022214784        1.9026809949        3.9456475836
        3.4664938531        2.0026802981        3.9813624092
        3.5253970687        2.1084591836        4.0087897208
        3.5784436622        2.2189821224        4.0279494536
        3.6252374879        2.3333119771        4.0388126274
        3.6652810858        2.4506481089        4.0410915182
        3.6978883327        2.5701459769        4.0342931905
        3.7223374133        2.6907287450        4.0180172700
        3.7381901099        2.8111042226        3.9922860081
        3.7455363626        2.9300018378        3.9576659325
        3.7449472958        3.0464322079        3.9150902750
        3.7371277146        3.1597369247        3.8655000638
        3.7224895212        3.2693674931        3.8095355841
        3.7009377481        3.3745604557        3.7474580484
        3.6720145094        3.4741679614        3.6793182501
        3.6352963056        3.5667874571        3.6052388357
        1.7949302333        1.7096325416        2.2345202869
        1.8443241673        1.6374895134        2.3232038650
        1.8996243266        1.5745459150        2.4154871662
        1.9586122596        1.5194112463        2.5105313718
        2.0202909622        1.4717033531        2.6078638894
        2.0848564332        1.4323419437        2.7069205833
        2.1530054904        1.4028482164        2.8067996085
        2.2250612587        1.3841008165        2.9064271474
        2.3004920775        1.3754227775        3.0049951367
        2.3780945154        1.3746871692        3.1022980064
        2.4566370704        1.3794393289        3.1986552454
        2.5354643879        1.3883258011        3.2944184917
        2.6146427891        1.4019016738        3.3893869859
        2.6945976972        1.4223116805        3.4825413770
        2.7755572177        1.4520940278        3.5722841321
        2.8572086353        1.4929004249        3.6570133813
        2.9387592841        1.5448968674        3.7356298576
        3.0192701915        1.6070744038        3.8076506075
        3.0979600007        1.6780797453        3.8729117532
        3.1742681621        1.7569142984        3.9311427831
        3.2477080925        1.8430824929        3.9817598784
        3.3177118753        1.9362550922        4.0240196510
        3.3836319440        2.0358539417        4.0573725870
        3.4448788406        2.1409280054        4.0816992289
        3.5010239058        2.2503673170        4.0972187561
        3.5517253118        2.3631969935        4.1041349262
        3.5965180904        2.4786585018        4.1023047013
        3.6346719193        2.5960170945        4.0912067783
        3.6653028557        2.7143032131        4.0702604984
        3.6877230897        2.8322585008        4.0392787411
        3.7017906390        2.9485658916        3.9987346980
        3.7079745055        3.0621758089        3.9496544200
        3.7070384189        3.1724370235        3.8932091528
        3.6995321140        3.2788947612        3.8302796201
        3.6854389072        3.3809006002        3.7612645777
        3.6642307886        3.4773507694        3.6862255157
        3.6352963056        3.5667874571        3.6052388357
        1.7949302333        1.7096325416        2.2345202869
        1.8375718375        1.6428945565        2.3296606398
        1.8868062918        1.5859491975        2.4281429381
        1.9398846760        1.5368316551        2.5290138192
        1.9951747936        1.4943302636        2.6318345175
        2.0525203691        1.4586744240        2.7361703971
        2.1127915186        1.4312312762        2.8412314899
        2.1769332247        1.4133926051        2.9459368543
        2.2451325858        1.4054119982        3.0493369167
        2.3166103664        1.4060147188        3.1510375117
        2.3900880153        1.4130793455        3.2512523633
        2.4645245284        1.4249445897        3.3503868638
        2.5395829296        1.4414622057        3.4484179438
        2.6155433785        1.4641057004        3.5445045519
        2.6928053458        1.4951059856        3.6371069179
        2.7713867926        1.5362310084        3.7245266066
        2.8507588455        1.5880004901        3.8054814688
        2.9300486157        1.6497414372        3.8793248328
        3.0083689561        1.7202707601        3.9458044194
        3.0850005080        1.7986074116        4.0046076758
        3.1593454259        1.8842179847        4.0550850027
        3.2307936444        1.9767471112        4.0963751977
        3.2986922808        2.0755906223        4.1278182791
        3.3624614016        2.1797252461        4.1493014566
        3.4217140458        2.2879170811        4.1612330397
        3.4762047718        2.3990763635        4.1641355949
        3.5255919315        2.5124156264        4.1581586284
        3.5692079252        2.6272758434        4.1428894732
        3.6060837656        2.7428050327        4.1176267716
        3.6352942847        2.8578136988        4.0819377112
        3.6564122449        2.9709687552        4.0361078228
        3.6697216905        3.0811705816        3.9811672071
        3.6759820870        3.1877714696        3.9184783955
        3.6758663313        3.2904099430        3.8491736818
        3.6694613469        3.3885640188        3.7738180977
        3.6562008694        3.4811905299        3.6924983826
        3.6352963056        3.5667874571        3.6052388357
        1.7949302333        1.7096325416        2.2345202869
        1.8305696617        1.6488535388        2.3354141112
        1.8736391818        1.5985193422        2.4393943621
        1.9208898082        1.5561294556        2.5453784843
        1.9699582937        1.5195839627        2.6529627856
        2.0201533936        1.4882717706        2.7618838367
        2.0723625002        1.4632533043        2.8715382037
        2.1281325229        1.4463958317        2.9808987502
        2.1885102681        1.4390212792        3.0888653287
        2.2533613107        1.4409714403        3.1947563002
        2.3215271307        1.4507133345        3.2985318433
        2.3915984285        1.4663849753        3.4005351668
        2.4627030969        1.4870374114        3.5009041975
        2.5347836538        1.5132259600        3.5990675971
        2.6082705579        1.5466004661        3.6936908911
        2.6834907777        1.5888558269        3.7831109502
        2.7602684219        1.6408027701        3.8659375749
        2.8379367352        1.7021392124        3.9413863916
        2.9156278089        1.7719282132        4.0091274748
        2.9925348358        1.8492854881        4.0688179395
        3.0679582255        1.9337182266        4.1197330457
        3.1412006258        2.0249321305        4.1608240030
        3.2115156354        2.1223879229        4.1911782854
        3.2782207370        2.2250577852        4.2105187423
        3.3408682967        2.3315992323        4.2193238367
        3.3992584018        2.4407658605        4.2184332038
        3.4532002467        2.5516698216        4.2084053232
        3.5021837447        2.6636678028        4.1891030379
        3.5452672136        2.7760029958        4.1598297204
        3.5813579786        2.8875665171        4.1199347198
        3.6097392061        2.9970318613        4.0694565834
        3.6304477748        3.1032624548        4.0093415172
        3.6441679824        3.2056150177        3.9410849565
        3.6516604957        3.3038208978        3.8660612490
        3.6531251700        3.3974917882        3.7850202231
        3.6479865306        3.4856584935        3.6980890002
        3.6352963056        3.5667874571        3.6052388357
        1.7949302333        1.7096325416        2.2345202869
        1.8233601463        1.6553108479        2.3404216677
        1.8601881411        1.6121209477        2.4491626643
        1.9017314041        1.5770954620        2.5595156381
        1.9448481581        1.5472516982        2.6711025835
        1.9881560581        1.5210588933        2.7838567700
        2.0323818780        1.4991488482        2.8974231312
        2.0795866714        1.4837773633        3.0108892440
        2.1317370735        1.4773395073        3.1230127279
        2.1895142868        1.4808844643        3.2327579244
        2.2520563069        1.4935821600        3.3397224214
        2.3176674275        1.5134361798        3.4441044732
        2.3848951819        1.5386847656        3.5462008548
        2.4532176058        1.5689014281        3.6457858440
        2.5229690421        1.6050945622        3.7418270401
        2.5947189673        1.6488646058        3.8327496750
        2.6686505807        1.7013219047        3.9170464671
        2.7443574833        1.7625348567        3.9937665972
        2.8210640102        1.8317736720        4.0625185306
        2.8979526195        1.9081830198        4.1230156974
        2.9742952240        1.9912580263        4.1745711609
        3.0493606967        2.0807712929        4.2160003410
        3.1223147172        2.1763202752        4.2460652835
        3.1923098161        2.2769750069        4.2641418558
        3.2587211720        2.3813643449        4.2705774215
        3.3212757148        2.4881086267        4.2664165496
        3.3798747475        2.5961907677        4.2526557121
        3.4341970111        2.7049348669        4.2295682606
        3.4834245896        2.8136452746        4.1966112818
        3.5263954179        2.9212867946        4.1529962486
        3.5621452780        3.0265501724        4.0985022542
        3.5904368884        3.1282734592        4.0339243365
        3.6118172674        3.2258218811        3.9608268777
        3.6270871724        3.3190194444        3.8807994706
        3.6365523917        3.4076144384        3.7947820077
        3.6396507468        3.4907209059        3.7029545864
        3.6352963056        3.5667874571        3.6052388357
        1.7949302333        1.7096325416        2.2345202869
        1.8159859736        1.6622067866        2.3446463973
        1.8465096583        1.6266054324        2.4573815473
        1.8824821826        1.5994865428        2.5713382485
        1.9199914537        1.5770525540        2.6861442856
        1.9568533185        1.5568488596        2.8019330792
        1.9934536175        1.5389912927        2.9186366189
        2.0322170964        1.5259841245        3.0355117935
        2.0759919506        1.5211550554        3.1512079930
        2.1263600344        1.5266659836        3.2643276841
        2.1829029228        1.5423641993        3.3740713697
        2.2437623838        1.5661632454        3.4804709099
        2.3069543156        1.5955909650        3.5839999599
        2.3714703863        1.6293812043        3.6848187252
        2.4374959808        1.6680561116        3.7822063860
        2.5057940107        1.7132516274        3.8746113375
        2.5768693067        1.7664389622        3.9602817647
        2.6505418047        1.8280197194        4.0379863204
        2.7260993409        1.8973400234        4.1072632513
        2.8027125173        1.9733932872        4.1680182255
        2.8796754386        2.0555015406        4.2198293577
        2.9563208045        2.1434207449        4.2615744656
        3.0318254702        2.2368986521        4.2917474504
        3.1052163407        2.3351880496        4.3092637010
        3.1756388406        2.4369930955        4.3141258343
        3.2426280813        2.5408761316        4.3073919274
        3.3060629437        2.6457173779        4.2904216876
        3.3657671674        2.7507967193        4.2639534135
        3.4210902484        2.8554558386        4.2277178573
        3.4708902330        2.9587187223        4.1808880707
        3.5140253151        3.0592941642        4.1230123209
        3.5499934789        3.1560036474        4.0546994129
        3.5791625698        3.2482274817        3.9775267742
        3.6023232086        3.3358826942        3.8932615164
        3.6198664591        3.4188526920        3.8030249688
        3.6312572344        3.4963392822        3.7070577790
        3.6352963056        3.5667874571        3.6052388357
        1.7949302333        1.7096325416        2.2345202869
        1.8084900830        1.6694784374        2.3480572959
        1.8326520591        1.6418137247        2.4639972805
        1.8631807066        1.6230275097        2.5807821942
        1.8954569910        1.6086262261        2.6980177720
        1.9264413935        1.5952937090        2.8160178255
        1.9560147252        1.5825754407        2.9350120682
        1.9867664859        1.5730412861        3.0544712459
        2.0222898350        1.5706935011        3.1729988101
        2.0650504188        1.5785734053        3.2888941821
        2.1151647116        1.5970974036        3.4010052091
        2.1707512305        1.6241571349        3.5092279488
        2.2294199296        1.6567926026        3.6142280449
        2.2897597347        1.6931927036        3.7165342613
        2.3518516576        1.7336584134        3.8156604151
        2.4166659326        1.7800193938        3.9099300878
        2.4850064940        1.8341312041        3.9971591276
        2.5568490365        1.8966366314        4.0756835193
        2.6314349796        1.9667963299        4.1449397475
        2.7078172301        2.0432726162        4.2051555623
        2.7852696772        2.1250583694        4.2564264362
        2.8632427257        2.2117897580        4.2979601944
        2.9410493576        2.3033290205        4.3281465040
        3.0177129149        2.3991404914        4.3454364663
        3.0921937230        2.4980761228        4.3493413117
        3.1637793099        2.5987232666        4.3407365027
        3.2322139563        2.6999212758        4.3212017754
        3.2973752880        2.8009311438        4.2919035172
        3.3587646060        2.9011274825        4.2528995732
        3.4153155374        2.9995799728        4.2034072245
        3.4657825996        3.0950108740        4.1427962302
        3.5094357539        3.1862326119        4.0714879110
        3.5464460404        3.2726500849        3.9910344146
        3.5775492344        3.3542744396        3.9033386282
        3.6031917054        3.4311182883        3.8096820475
        3.6228699994        3.5024707234        3.7103669528
        3.6352963056        3.5667874571        3.6052388357
        1.7949302333        1.7096325416        2.2345202869
        1.8009158397        1.6770605828        2.3506294257
        1.8186569836        1.6575796663        2.4689685410
        1.8438318266        1.6474165636        2.5878054868
        1.8712244227        1.6415332270        2.7066929557
        1.8969464654        1.6358637446        2.8260860488
        1.9202414687        1.6293589831        2.9464958497
        1.9436386986        1.6244534219        3.0676391412
        1.9712623135        1.6255064934        3.1881573825
        2.0063561561        1.6361492264        3.3061574590
        2.0496090129        1.6572550667        3.4202292114
        2.0992589412        1.6868245641        3.5301736314
        2.1526855828        1.7217222903        3.6368193058
        2.2082252705        1.7599352576        3.7409743628
        2.2659577427        1.8017671835        3.8422627371
        2.3271180997        1.8492803783        3.9387501245
        2.3928193600        1.9046083884        4.0277015308
        2.4631419674        1.9684821051        4.1069388537
        2.5371638513        2.0399605167        4.1757772343
        2.6136662095        2.1173179874        4.2348287821
        2.6917757071        2.1991903972        4.2848495104
        2.7710246298        2.2850573158        4.3255664178
        2.8509355888        2.3748432850        4.3554364833
        2.9306639949        2.4681840382        4.3725353824
        3.0090981266        2.5640821284        4.3758578429
        3.0853033833        2.6611985377        4.3659799603
        3.1588255834        2.7583968413        4.3445578808
        3.2295011350        2.8549639521        4.3130855310
        3.2969277358        2.9503171096        4.2719258736
        3.3601301180        3.0435608277        4.2203821122
        3.4178196558        3.1334245644        4.1577025654
        3.4690889573        3.2187207257        4.0841480092
        3.5139164517        3.2988923464        4.0012283453
        3.5529486726        3.3740465813        3.9109418001
        3.5866527120        3.4443148741        3.8146984671
        3.6145528830        3.5090682703        3.7128564947
        3.6352963056        3.5667874571        3.6052388357
        1.7949302333        1.7096325416        2.2345202869
        1.7933072705        1.6848866552        2.3523440278
        1.8045618620        1.6737340334        2.4722660355
        1.8244115431        1.6723345937        2.5923864407
        1.8471852690        1.6752689988        2.7121768671
        1.8682075202        1.6778629769        2.8321830658
        1.8859957734        1.6784773511        2.9531596439
        1.9027961662        1.6792249575        3.0750871143
        1.9230103339        1.6845128125        3.1967355186
        1.9505040533        1.6982953051        3.3161505834
        1.9865503575        1.7218433233        3.4317648354
        2.0296613909        1.7534604909        3.5432879631
        2.0771898145        1.7901743103        3.6516066234
        2.1273786242        1.8300541353        3.7576522742
        2.1803842630        1.8734798027        3.8610424437
        2.2377241896        1.9225937558        3.9595688280
        2.3008148563        1.9795550420        4.0500183851
        2.3698244261        2.0450005504        4.1297883435
        2.4436202326        2.1177728241        4.1981034256
        2.5206178733        2.1958804804        4.2559138044
        2.5996759214        2.2777456294        4.3045637421
        2.6803168272        2.3627495502        4.3442793431
        2.7622636308        2.4508293289        4.3736572002
        2.8448826310        2.5416937561        4.3905293716
        2.9271041389        2.6344300322        4.3934826742
        3.0078461031        2.7277765929        4.3828091215
        3.0864495062        2.8206708722        4.3601578028
        3.1626422394        2.9124704524        4.3272283942
        3.2360516636        3.0026460007        4.2846068505
        3.3057789431        3.0903247316        4.2316778415
        3.3705322202        3.1742374930        4.1676179464
        3.4292793316        3.2532102699        4.0925741002
        3.4818258483        3.3267428336        4.0080167937
        3.5287063606        3.3950405963        3.9160030761
        3.5703735744        3.4583389450        3.8180324564
        3.6063691075        3.5160812887        3.7145070327
        3.6352963056        3.5667874571        3.6052388357
        1.7949302333        1.7096325416        2.2345202869
        1.7857093376        1.6928896817        2.3531885945
        1.7904032793        1.6901089724        2.4738719617
        1.8048765496        1.6974578831        2.5945209081
        1.8231583246        1.7092913932        2.7145069985
        1.8398916731        1.7204798430        2.8344139994
        1.8528308415        1.7288285510        2.9551884237
        1.8637477021        1.7359889897        3.0770752374
        1.8770721858        1.7461681111        3.1990515910
        1.8971301496        1.7634481594        3.3192217595
        1.9257990714        1.7894979959        3.4359332586
        1.9620446353        1.8231364988        3.5487510223
        2.0034093029        1.8618405506        3.6584440102
        2.0481650661        1.9039216078        3.7658735200
        2.0965222862        1.9497460295        3.8705843732
        2.1501677788        2.0012424037        3.9702351900
        2.2107232366        2.0602790764        4.0614270422
        2.2784304091        2.1272526854        4.1414074360
        2.3520025316        2.2008859605        4.2093971312
        2.4295453990        2.2791765692        4.2665272873
        2.5096440807        2.3605766633        4.3144311963
        2.5917464824        2.4444706583        4.3535804516
        2.6757093716        2.5307521416        4.3826480965
        2.7610994102        2.6190756246        4.3993582632
        2.8469421967        2.7085191014        4.4021042847
        2.9320782685        2.7978840896        4.3910354880
        3.0156727752        2.8862190974        4.3677868727
        3.0973148054        2.9729848971        4.3341485918
        3.1766056833        3.0577047703        4.2908116738
        3.2526939878        3.1395105167        4.2372027569
        3.3243052646        3.2171309844        4.1724669188
        3.3903290806        3.2894265995        4.0966959392
        3.4504261464        3.3559776078        4.0113380960
        3.5050069105        3.4170890583        3.9184764844
        3.5544770740        3.4730808209        3.8196558153
        3.5983808210        3.5234558821        3.7153056145
        3.6352963056        3.5667874571        3.6052388357
        1.7949302333        1.7096325416        2.2345202869
        1.7781682161        1.7010031891        2.3531569069
        1.7762209893        1.7065425538        2.4737793893
        1.7851779663        1.7224730333        2.5942188925
        1.7989193453        1.7430579893        2.7137415076
        1.8115438640        1.7628642768        2.8329231308
        1.8200620787        1.7792089653        2.9528443104
        1.8256389752        1.7932121448        3.0739956673
        1.8325257149        1.8087242622        3.1956113038
        1.8453717376        1.8298380035        3.3159398704
        1.8666989014        1.8586453527        3.4332792098
        1.8961232612        1.8946408186        3.5469602630
        1.9315912207        1.9359219562        3.6574360698
        1.9714739797        1.9810716828        3.7653147679
        2.0158978695        2.0302668199        3.8700618704
        2.0664540573        2.0849220924        3.9694498559
        2.1247450983        2.1463657589        4.0603080035
        2.1910368528        2.2147018493        4.1400981833
        2.2640247681        2.2886967926        4.2081377174
        2.3417189093        2.3666028598        4.2655105405
        2.4225838978        2.4471108729        4.3137142947
        2.5060143665        2.5296652829        4.3530889354
        2.5919228208        2.6140406049        4.3822498062
        2.6799890818        2.6997245357        4.3989485562
        2.7693055151        2.7857238286        4.4016502799
        2.8586649233        2.8709111716        4.3905647881
        2.9470938894        2.9544820347        4.3673448419
        3.0340432930        3.0360135658        4.3337618067
        3.1190543810        3.1150609737        4.2904796264
        3.2012933798        3.1907355237        4.2369128326
        3.2795100504        3.2617666796        4.1722118327
        3.3525523325        3.3270794675        4.0964778754
        3.4199659379        3.3863619687        4.0111608576
        3.4820329258        3.4400172216        3.9183386467
        3.5390837725        3.4884256412        3.8195543053
        3.5906486438        3.5311353253        3.7152458298
        3.6352963056        3.5667874571        3.6052388357
        1.7949302333        1.7096325416        2.2345202869
        1.7707315336        1.7091620352        2.3522490432
        1.7620622163        1.7228830818        2.4719916565
        1.7652780006        1.7470923653        2.5915010253
        1.7742420639        1.7760674803        2.7099477717
        1.7826653269        1.8042164849        2.8278666269
        1.7868940432        1.8284706642        2.9464136912
        1.7874328318        1.8494288697        3.0662851774
        1.7882135349        1.8705241095        3.1869826297
        1.7941041721        1.8957997369        3.3069428630
        1.8083063926        1.9277705765        3.4244271961
        1.8312577622        1.9666569824        3.5384576792
        1.8614898756        2.0112071411        3.6490222988
        1.8975042168        2.0602145142        3.7563537686
        1.9391513981        2.1135105982        3.8598707146
        1.9875917561        2.1718220448        3.9576996675
        2.0441148594        2.2358483313        4.0472607385
        2.1089238757        2.3054509691        4.1265251499
        2.1808524583        2.3795910325        4.1949583084
        2.2581028257        2.4569273101        4.2533658197
        2.3392660880        2.5364547671        4.3027276658
        2.4237728567        2.6176418661        4.3429381051
        2.5115263942        2.7000639012        4.3724709861
        2.6021956744        2.7829927796        4.3892572253
        2.6948574830        2.8653787688        4.3920817307
        2.7882515484        2.9462162704        4.3813850762
        2.8813023125        3.0248799836        4.3588420545
        2.9733455299        3.1010486863        4.3260850706
        3.0638508074        3.1742668200        4.2836226456
        3.1519787083        3.2435983318        4.2308121542
        3.2365016613        3.3077877105        4.1668520610
        3.3162519866        3.3658646420        4.0919182641
        3.3906876344        3.4176524594        4.0074840088
        3.4599631721        3.4636446760        3.9155890943
        3.5243110486        3.5042543652        3.8177278579
        3.5832312178        3.5390605155        3.7143278753
        3.6352963056        3.5667874571        3.6052388357
        1.7949302333        1.7096325416        2.2345202869
        1.7634485326        1.7173031331        2.3504713630
        1.7479857961        1.7389927802        2.4685218777
        1.7451676154        1.7710677951        2.5863954879
        1.7489450951        1.8078983507        2.7031914077
        1.7528086042        1.8438705419        2.8193843544
        1.7525802290        1.8756673361        2.9361500987
        1.7481425384        1.9034535120        3.0543293717
        1.7430451768        1.9302654085        3.1736590664
        1.7422888253        1.9600664483        3.2927678095
        1.7497380551        1.9957339415        3.4098926100
        1.7667299371        2.0381341147        3.5237331904
        1.7924841367        2.0865697339        3.6337705830
        1.8256446363        2.1399479207        3.7398334817
        1.8656406233        2.1976911073        3.8413344281
        1.9129422226        2.2598416387        3.9368814407
        1.9682883423        2.3265449622        4.0246474112
        2.0317383266        2.3975237179        4.1032124556
        2.1023794165        2.4719996464        4.1721535403
        2.1788370664        2.5490213072        4.2318357916
        2.2600341071        2.6277998133        4.2825312551
        2.3455121760        2.7077309484        4.3235915816
        2.4351051497        2.7881538295        4.3534061867
        2.5283552741        2.8681710737        4.3702530740
        2.6242448383        2.9467692027        4.3734006090
        2.7214576780        3.0231359045        4.3635757894
        2.8188616841        3.0968304110        4.3424011514
        2.9157173868        3.1675813804        4.3112325839
        3.0114278020        3.2348644550        4.2703199226
        3.1051314362        3.2976798635        4.2189493195
        3.1956169252        3.3548196916        4.1564225641
        3.2817173080        3.4054660210        4.0830492175
        3.3628249889        3.4495992263        4.0003368635
        3.4389707694        3.4877870613        3.9102503152
        3.5102720997        3.5204447601        3.8141905929
        3.5761847637        3.5471704346        3.7125585609
        3.6352963056        3.5667874571        3.6052388357
        1.7949302333        1.7096325416        2.2345202869
        1.7563701144        1.7253660430        2.3478364705
        1.7340656702        1.7547505106        2.4633926437
        1.7248829064        1.7942012878        2.5789359442
        1.7229377292        1.8382384619        2.6935280190
        1.7216727645        1.8813574471        2.8075771826
        1.7165839045        1.9201600450        2.9222269177
        1.7070647003        1.9545252186        3.0383839004
        1.6962994001        1.9871704097        3.1559500669